LAMMPS data file via write_data, version 29 Sep 2021, timestep = 5000

7720 atoms
6 atom types
3800 bonds
1 bond types
1900 angles
1 angle types

-20.2 20.2 xlo xhi
-20.2 20.2 ylo yhi
-52.52 52.52 zlo zhi

Masses

1 15.9994
2 1.008
3 28.99
4 35.453
5 26.9815
6 26.9815

Pair Coeffs # lj/cut/tip4p/long

1 0.185199 3.1589
2 0 0
3 0.0469 2.4299
4 0.15 4.0447
5 11.697 2.574
6 11.697 2.574

Bond Coeffs # harmonic

1 0 0.9572

Angle Coeffs # harmonic

1 0 104.52

Atoms # full

1 0 5 0 -20.2 -20.2 -47.98026957577944 0 0 0
2 0 5 0 -18.18 -18.18 -47.98026957577944 0 0 0
3 0 5 0 -18.18 -20.2 -45.960269575779435 0 0 0
4 0 5 0 -20.2 -18.18 -45.960269575779435 0 0 0
5 0 5 0 -16.16 -20.2 -47.98026957577944 0 0 0
6 0 5 0 -14.14 -18.18 -47.98026957577944 0 0 0
7 0 5 0 -14.14 -20.2 -45.960269575779435 0 0 0
8 0 5 0 -16.16 -18.18 -45.960269575779435 0 0 0
9 0 5 0 -12.120000000000001 -20.2 -47.98026957577944 0 0 0
12 0 5 0 -12.120000000000001 -18.18 -45.960269575779435 0 0 0
41 0 5 0 -20.2 -16.16 -47.98026957577944 0 0 0
42 0 5 0 -18.18 -14.14 -47.98026957577944 0 0 0
43 0 5 0 -18.18 -16.16 -45.960269575779435 0 0 0
44 0 5 0 -20.2 -14.14 -45.960269575779435 0 0 0
45 0 5 0 -16.16 -16.16 -47.98026957577944 0 0 0
46 0 5 0 -14.14 -14.14 -47.98026957577944 0 0 0
47 0 5 0 -14.14 -16.16 -45.960269575779435 0 0 0
48 0 5 0 -16.16 -14.14 -45.960269575779435 0 0 0
49 0 5 0 -12.120000000000001 -16.16 -47.98026957577944 0 0 0
52 0 5 0 -12.120000000000001 -14.14 -45.960269575779435 0 0 0
81 0 5 0 -20.2 -12.120000000000001 -47.98026957577944 0 0 0
83 0 5 0 -18.18 -12.120000000000001 -45.960269575779435 0 0 0
85 0 5 0 -16.16 -12.120000000000001 -47.98026957577944 0 0 0
87 0 5 0 -14.14 -12.120000000000001 -45.960269575779435 0 0 0
89 0 5 0 -12.120000000000001 -12.120000000000001 -47.98026957577944 0 0 0
10 0 5 0 -10.1 -18.18 -47.98026957577944 0 0 0
11 0 5 0 -10.1 -20.2 -45.960269575779435 0 0 0
13 0 5 0 -8.08 -20.2 -47.98026957577944 0 0 0
14 0 5 0 -6.0600000000000005 -18.18 -47.98026957577944 0 0 0
15 0 5 0 -6.0600000000000005 -20.2 -45.960269575779435 0 0 0
16 0 5 0 -8.08 -18.18 -45.960269575779435 0 0 0
50 0 5 0 -10.1 -14.14 -47.98026957577944 0 0 0
51 0 5 0 -10.1 -16.16 -45.960269575779435 0 0 0
53 0 5 0 -8.08 -16.16 -47.98026957577944 0 0 0
54 0 5 0 -6.0600000000000005 -14.14 -47.98026957577944 0 0 0
55 0 5 0 -6.0600000000000005 -16.16 -45.960269575779435 0 0 0
56 0 5 0 -8.08 -14.14 -45.960269575779435 0 0 0
91 0 5 0 -10.1 -12.120000000000001 -45.960269575779435 0 0 0
93 0 5 0 -8.08 -12.120000000000001 -47.98026957577944 0 0 0
95 0 5 0 -6.0600000000000005 -12.120000000000001 -45.960269575779435 0 0 0
17 0 5 0 -4.04 -20.2 -47.98026957577944 0 0 0
18 0 5 0 -2.02 -18.18 -47.98026957577944 0 0 0
19 0 5 0 -2.02 -20.2 -45.960269575779435 0 0 0
20 0 5 0 -4.04 -18.18 -45.960269575779435 0 0 0
21 0 5 0 0 -20.2 -47.98026957577944 0 0 0
22 0 5 0 2.02 -18.18 -47.98026957577944 0 0 0
23 0 5 0 2.02 -20.2 -45.960269575779435 0 0 0
24 0 5 0 0 -18.18 -45.960269575779435 0 0 0
57 0 5 0 -4.04 -16.16 -47.98026957577944 0 0 0
58 0 5 0 -2.02 -14.14 -47.98026957577944 0 0 0
59 0 5 0 -2.02 -16.16 -45.960269575779435 0 0 0
60 0 5 0 -4.04 -14.14 -45.960269575779435 0 0 0
61 0 5 0 0 -16.16 -47.98026957577944 0 0 0
62 0 5 0 2.02 -14.14 -47.98026957577944 0 0 0
63 0 5 0 2.02 -16.16 -45.960269575779435 0 0 0
64 0 5 0 0 -14.14 -45.960269575779435 0 0 0
97 0 5 0 -4.04 -12.120000000000001 -47.98026957577944 0 0 0
99 0 5 0 -2.02 -12.120000000000001 -45.960269575779435 0 0 0
101 0 5 0 0 -12.120000000000001 -47.98026957577944 0 0 0
103 0 5 0 2.02 -12.120000000000001 -45.960269575779435 0 0 0
25 0 5 0 4.04 -20.2 -47.98026957577944 0 0 0
26 0 5 0 6.0600000000000005 -18.18 -47.98026957577944 0 0 0
27 0 5 0 6.0600000000000005 -20.2 -45.960269575779435 0 0 0
28 0 5 0 4.04 -18.18 -45.960269575779435 0 0 0
29 0 5 0 8.08 -20.2 -47.98026957577944 0 0 0
30 0 5 0 10.1 -18.18 -47.98026957577944 0 0 0
31 0 5 0 10.1 -20.2 -45.960269575779435 0 0 0
32 0 5 0 8.08 -18.18 -45.960269575779435 0 0 0
65 0 5 0 4.04 -16.16 -47.98026957577944 0 0 0
66 0 5 0 6.0600000000000005 -14.14 -47.98026957577944 0 0 0
67 0 5 0 6.0600000000000005 -16.16 -45.960269575779435 0 0 0
68 0 5 0 4.04 -14.14 -45.960269575779435 0 0 0
69 0 5 0 8.08 -16.16 -47.98026957577944 0 0 0
70 0 5 0 10.1 -14.14 -47.98026957577944 0 0 0
71 0 5 0 10.1 -16.16 -45.960269575779435 0 0 0
72 0 5 0 8.08 -14.14 -45.960269575779435 0 0 0
105 0 5 0 4.04 -12.120000000000001 -47.98026957577944 0 0 0
107 0 5 0 6.0600000000000005 -12.120000000000001 -45.960269575779435 0 0 0
109 0 5 0 8.08 -12.120000000000001 -47.98026957577944 0 0 0
111 0 5 0 10.1 -12.120000000000001 -45.960269575779435 0 0 0
33 0 5 0 12.120000000000001 -20.2 -47.98026957577944 0 0 0
34 0 5 0 14.14 -18.18 -47.98026957577944 0 0 0
35 0 5 0 14.14 -20.2 -45.960269575779435 0 0 0
36 0 5 0 12.120000000000001 -18.18 -45.960269575779435 0 0 0
37 0 5 0 16.16 -20.2 -47.98026957577944 0 0 0
38 0 5 0 18.18 -18.18 -47.98026957577944 0 0 0
39 0 5 0 18.18 -20.2 -45.960269575779435 0 0 0
40 0 5 0 16.16 -18.18 -45.960269575779435 0 0 0
73 0 5 0 12.120000000000001 -16.16 -47.98026957577944 0 0 0
74 0 5 0 14.14 -14.14 -47.98026957577944 0 0 0
75 0 5 0 14.14 -16.16 -45.960269575779435 0 0 0
76 0 5 0 12.120000000000001 -14.14 -45.960269575779435 0 0 0
77 0 5 0 16.16 -16.16 -47.98026957577944 0 0 0
78 0 5 0 18.18 -14.14 -47.98026957577944 0 0 0
79 0 5 0 18.18 -16.16 -45.960269575779435 0 0 0
80 0 5 0 16.16 -14.14 -45.960269575779435 0 0 0
113 0 5 0 12.120000000000001 -12.120000000000001 -47.98026957577944 0 0 0
115 0 5 0 14.14 -12.120000000000001 -45.960269575779435 0 0 0
117 0 5 0 16.16 -12.120000000000001 -47.98026957577944 0 0 0
119 0 5 0 18.18 -12.120000000000001 -45.960269575779435 0 0 0
82 0 5 0 -18.18 -10.1 -47.98026957577944 0 0 0
84 0 5 0 -20.2 -10.1 -45.960269575779435 0 0 0
86 0 5 0 -14.14 -10.1 -47.98026957577944 0 0 0
88 0 5 0 -16.16 -10.1 -45.960269575779435 0 0 0
92 0 5 0 -12.120000000000001 -10.1 -45.960269575779435 0 0 0
121 0 5 0 -20.2 -8.08 -47.98026957577944 0 0 0
122 0 5 0 -18.18 -6.0600000000000005 -47.98026957577944 0 0 0
123 0 5 0 -18.18 -8.08 -45.960269575779435 0 0 0
124 0 5 0 -20.2 -6.0600000000000005 -45.960269575779435 0 0 0
125 0 5 0 -16.16 -8.08 -47.98026957577944 0 0 0
126 0 5 0 -14.14 -6.0600000000000005 -47.98026957577944 0 0 0
127 0 5 0 -14.14 -8.08 -45.960269575779435 0 0 0
128 0 5 0 -16.16 -6.0600000000000005 -45.960269575779435 0 0 0
129 0 5 0 -12.120000000000001 -8.08 -47.98026957577944 0 0 0
132 0 5 0 -12.120000000000001 -6.0600000000000005 -45.960269575779435 0 0 0
90 0 5 0 -10.1 -10.1 -47.98026957577944 0 0 0
94 0 5 0 -6.0600000000000005 -10.1 -47.98026957577944 0 0 0
96 0 5 0 -8.08 -10.1 -45.960269575779435 0 0 0
130 0 5 0 -10.1 -6.0600000000000005 -47.98026957577944 0 0 0
131 0 5 0 -10.1 -8.08 -45.960269575779435 0 0 0
133 0 5 0 -8.08 -8.08 -47.98026957577944 0 0 0
134 0 5 0 -6.0600000000000005 -6.0600000000000005 -47.98026957577944 0 0 0
135 0 5 0 -6.0600000000000005 -8.08 -45.960269575779435 0 0 0
136 0 5 0 -8.08 -6.0600000000000005 -45.960269575779435 0 0 0
98 0 5 0 -2.02 -10.1 -47.98026957577944 0 0 0
100 0 5 0 -4.04 -10.1 -45.960269575779435 0 0 0
102 0 5 0 2.02 -10.1 -47.98026957577944 0 0 0
104 0 5 0 0 -10.1 -45.960269575779435 0 0 0
137 0 5 0 -4.04 -8.08 -47.98026957577944 0 0 0
138 0 5 0 -2.02 -6.0600000000000005 -47.98026957577944 0 0 0
139 0 5 0 -2.02 -8.08 -45.960269575779435 0 0 0
140 0 5 0 -4.04 -6.0600000000000005 -45.960269575779435 0 0 0
141 0 5 0 0 -8.08 -47.98026957577944 0 0 0
142 0 5 0 2.02 -6.0600000000000005 -47.98026957577944 0 0 0
143 0 5 0 2.02 -8.08 -45.960269575779435 0 0 0
144 0 5 0 0 -6.0600000000000005 -45.960269575779435 0 0 0
106 0 5 0 6.0600000000000005 -10.1 -47.98026957577944 0 0 0
108 0 5 0 4.04 -10.1 -45.960269575779435 0 0 0
110 0 5 0 10.1 -10.1 -47.98026957577944 0 0 0
112 0 5 0 8.08 -10.1 -45.960269575779435 0 0 0
145 0 5 0 4.04 -8.08 -47.98026957577944 0 0 0
146 0 5 0 6.0600000000000005 -6.0600000000000005 -47.98026957577944 0 0 0
147 0 5 0 6.0600000000000005 -8.08 -45.960269575779435 0 0 0
148 0 5 0 4.04 -6.0600000000000005 -45.960269575779435 0 0 0
149 0 5 0 8.08 -8.08 -47.98026957577944 0 0 0
150 0 5 0 10.1 -6.0600000000000005 -47.98026957577944 0 0 0
151 0 5 0 10.1 -8.08 -45.960269575779435 0 0 0
152 0 5 0 8.08 -6.0600000000000005 -45.960269575779435 0 0 0
114 0 5 0 14.14 -10.1 -47.98026957577944 0 0 0
116 0 5 0 12.120000000000001 -10.1 -45.960269575779435 0 0 0
118 0 5 0 18.18 -10.1 -47.98026957577944 0 0 0
120 0 5 0 16.16 -10.1 -45.960269575779435 0 0 0
153 0 5 0 12.120000000000001 -8.08 -47.98026957577944 0 0 0
154 0 5 0 14.14 -6.0600000000000005 -47.98026957577944 0 0 0
155 0 5 0 14.14 -8.08 -45.960269575779435 0 0 0
156 0 5 0 12.120000000000001 -6.0600000000000005 -45.960269575779435 0 0 0
157 0 5 0 16.16 -8.08 -47.98026957577944 0 0 0
158 0 5 0 18.18 -6.0600000000000005 -47.98026957577944 0 0 0
159 0 5 0 18.18 -8.08 -45.960269575779435 0 0 0
160 0 5 0 16.16 -6.0600000000000005 -45.960269575779435 0 0 0
161 0 5 0 -20.2 -4.04 -47.98026957577944 0 0 0
162 0 5 0 -18.18 -2.02 -47.98026957577944 0 0 0
163 0 5 0 -18.18 -4.04 -45.960269575779435 0 0 0
164 0 5 0 -20.2 -2.02 -45.960269575779435 0 0 0
165 0 5 0 -16.16 -4.04 -47.98026957577944 0 0 0
166 0 5 0 -14.14 -2.02 -47.98026957577944 0 0 0
167 0 5 0 -14.14 -4.04 -45.960269575779435 0 0 0
168 0 5 0 -16.16 -2.02 -45.960269575779435 0 0 0
169 0 5 0 -12.120000000000001 -4.04 -47.98026957577944 0 0 0
172 0 5 0 -12.120000000000001 -2.02 -45.960269575779435 0 0 0
201 0 5 0 -20.2 0 -47.98026957577944 0 0 0
202 0 5 0 -18.18 2.02 -47.98026957577944 0 0 0
203 0 5 0 -18.18 0 -45.960269575779435 0 0 0
204 0 5 0 -20.2 2.02 -45.960269575779435 0 0 0
205 0 5 0 -16.16 0 -47.98026957577944 0 0 0
206 0 5 0 -14.14 2.02 -47.98026957577944 0 0 0
207 0 5 0 -14.14 0 -45.960269575779435 0 0 0
208 0 5 0 -16.16 2.02 -45.960269575779435 0 0 0
209 0 5 0 -12.120000000000001 0 -47.98026957577944 0 0 0
212 0 5 0 -12.120000000000001 2.02 -45.960269575779435 0 0 0
170 0 5 0 -10.1 -2.02 -47.98026957577944 0 0 0
171 0 5 0 -10.1 -4.04 -45.960269575779435 0 0 0
173 0 5 0 -8.08 -4.04 -47.98026957577944 0 0 0
174 0 5 0 -6.0600000000000005 -2.02 -47.98026957577944 0 0 0
175 0 5 0 -6.0600000000000005 -4.04 -45.960269575779435 0 0 0
176 0 5 0 -8.08 -2.02 -45.960269575779435 0 0 0
210 0 5 0 -10.1 2.02 -47.98026957577944 0 0 0
211 0 5 0 -10.1 0 -45.960269575779435 0 0 0
213 0 5 0 -8.08 0 -47.98026957577944 0 0 0
214 0 5 0 -6.0600000000000005 2.02 -47.98026957577944 0 0 0
215 0 5 0 -6.0600000000000005 0 -45.960269575779435 0 0 0
216 0 5 0 -8.08 2.02 -45.960269575779435 0 0 0
177 0 5 0 -4.04 -4.04 -47.98026957577944 0 0 0
178 0 5 0 -2.02 -2.02 -47.98026957577944 0 0 0
179 0 5 0 -2.02 -4.04 -45.960269575779435 0 0 0
180 0 5 0 -4.04 -2.02 -45.960269575779435 0 0 0
181 0 5 0 0 -4.04 -47.98026957577944 0 0 0
182 0 5 0 2.02 -2.02 -47.98026957577944 0 0 0
183 0 5 0 2.02 -4.04 -45.960269575779435 0 0 0
184 0 5 0 0 -2.02 -45.960269575779435 0 0 0
217 0 5 0 -4.04 0 -47.98026957577944 0 0 0
218 0 5 0 -2.02 2.02 -47.98026957577944 0 0 0
219 0 5 0 -2.02 0 -45.960269575779435 0 0 0
220 0 5 0 -4.04 2.02 -45.960269575779435 0 0 0
221 0 5 0 0 0 -47.98026957577944 0 0 0
222 0 5 0 2.02 2.02 -47.98026957577944 0 0 0
223 0 5 0 2.02 0 -45.960269575779435 0 0 0
224 0 5 0 0 2.02 -45.960269575779435 0 0 0
185 0 5 0 4.04 -4.04 -47.98026957577944 0 0 0
186 0 5 0 6.0600000000000005 -2.02 -47.98026957577944 0 0 0
187 0 5 0 6.0600000000000005 -4.04 -45.960269575779435 0 0 0
188 0 5 0 4.04 -2.02 -45.960269575779435 0 0 0
189 0 5 0 8.08 -4.04 -47.98026957577944 0 0 0
190 0 5 0 10.1 -2.02 -47.98026957577944 0 0 0
191 0 5 0 10.1 -4.04 -45.960269575779435 0 0 0
192 0 5 0 8.08 -2.02 -45.960269575779435 0 0 0
225 0 5 0 4.04 0 -47.98026957577944 0 0 0
226 0 5 0 6.0600000000000005 2.02 -47.98026957577944 0 0 0
227 0 5 0 6.0600000000000005 0 -45.960269575779435 0 0 0
228 0 5 0 4.04 2.02 -45.960269575779435 0 0 0
229 0 5 0 8.08 0 -47.98026957577944 0 0 0
230 0 5 0 10.1 2.02 -47.98026957577944 0 0 0
231 0 5 0 10.1 0 -45.960269575779435 0 0 0
232 0 5 0 8.08 2.02 -45.960269575779435 0 0 0
193 0 5 0 12.120000000000001 -4.04 -47.98026957577944 0 0 0
194 0 5 0 14.14 -2.02 -47.98026957577944 0 0 0
195 0 5 0 14.14 -4.04 -45.960269575779435 0 0 0
196 0 5 0 12.120000000000001 -2.02 -45.960269575779435 0 0 0
197 0 5 0 16.16 -4.04 -47.98026957577944 0 0 0
198 0 5 0 18.18 -2.02 -47.98026957577944 0 0 0
199 0 5 0 18.18 -4.04 -45.960269575779435 0 0 0
200 0 5 0 16.16 -2.02 -45.960269575779435 0 0 0
233 0 5 0 12.120000000000001 0 -47.98026957577944 0 0 0
234 0 5 0 14.14 2.02 -47.98026957577944 0 0 0
235 0 5 0 14.14 0 -45.960269575779435 0 0 0
236 0 5 0 12.120000000000001 2.02 -45.960269575779435 0 0 0
237 0 5 0 16.16 0 -47.98026957577944 0 0 0
238 0 5 0 18.18 2.02 -47.98026957577944 0 0 0
239 0 5 0 18.18 0 -45.960269575779435 0 0 0
240 0 5 0 16.16 2.02 -45.960269575779435 0 0 0
241 0 5 0 -20.2 4.04 -47.98026957577944 0 0 0
242 0 5 0 -18.18 6.0600000000000005 -47.98026957577944 0 0 0
243 0 5 0 -18.18 4.04 -45.960269575779435 0 0 0
244 0 5 0 -20.2 6.0600000000000005 -45.960269575779435 0 0 0
245 0 5 0 -16.16 4.04 -47.98026957577944 0 0 0
246 0 5 0 -14.14 6.0600000000000005 -47.98026957577944 0 0 0
247 0 5 0 -14.14 4.04 -45.960269575779435 0 0 0
248 0 5 0 -16.16 6.0600000000000005 -45.960269575779435 0 0 0
249 0 5 0 -12.120000000000001 4.04 -47.98026957577944 0 0 0
252 0 5 0 -12.120000000000001 6.0600000000000005 -45.960269575779435 0 0 0
281 0 5 0 -20.2 8.08 -47.98026957577944 0 0 0
282 0 5 0 -18.18 10.1 -47.98026957577944 0 0 0
283 0 5 0 -18.18 8.08 -45.960269575779435 0 0 0
284 0 5 0 -20.2 10.1 -45.960269575779435 0 0 0
285 0 5 0 -16.16 8.08 -47.98026957577944 0 0 0
286 0 5 0 -14.14 10.1 -47.98026957577944 0 0 0
287 0 5 0 -14.14 8.08 -45.960269575779435 0 0 0
288 0 5 0 -16.16 10.1 -45.960269575779435 0 0 0
289 0 5 0 -12.120000000000001 8.08 -47.98026957577944 0 0 0
292 0 5 0 -12.120000000000001 10.1 -45.960269575779435 0 0 0
250 0 5 0 -10.1 6.0600000000000005 -47.98026957577944 0 0 0
251 0 5 0 -10.1 4.04 -45.960269575779435 0 0 0
253 0 5 0 -8.08 4.04 -47.98026957577944 0 0 0
254 0 5 0 -6.0600000000000005 6.0600000000000005 -47.98026957577944 0 0 0
255 0 5 0 -6.0600000000000005 4.04 -45.960269575779435 0 0 0
256 0 5 0 -8.08 6.0600000000000005 -45.960269575779435 0 0 0
290 0 5 0 -10.1 10.1 -47.98026957577944 0 0 0
291 0 5 0 -10.1 8.08 -45.960269575779435 0 0 0
293 0 5 0 -8.08 8.08 -47.98026957577944 0 0 0
294 0 5 0 -6.0600000000000005 10.1 -47.98026957577944 0 0 0
295 0 5 0 -6.0600000000000005 8.08 -45.960269575779435 0 0 0
296 0 5 0 -8.08 10.1 -45.960269575779435 0 0 0
257 0 5 0 -4.04 4.04 -47.98026957577944 0 0 0
258 0 5 0 -2.02 6.0600000000000005 -47.98026957577944 0 0 0
259 0 5 0 -2.02 4.04 -45.960269575779435 0 0 0
260 0 5 0 -4.04 6.0600000000000005 -45.960269575779435 0 0 0
261 0 5 0 0 4.04 -47.98026957577944 0 0 0
262 0 5 0 2.02 6.0600000000000005 -47.98026957577944 0 0 0
263 0 5 0 2.02 4.04 -45.960269575779435 0 0 0
264 0 5 0 0 6.0600000000000005 -45.960269575779435 0 0 0
297 0 5 0 -4.04 8.08 -47.98026957577944 0 0 0
298 0 5 0 -2.02 10.1 -47.98026957577944 0 0 0
299 0 5 0 -2.02 8.08 -45.960269575779435 0 0 0
300 0 5 0 -4.04 10.1 -45.960269575779435 0 0 0
301 0 5 0 0 8.08 -47.98026957577944 0 0 0
302 0 5 0 2.02 10.1 -47.98026957577944 0 0 0
303 0 5 0 2.02 8.08 -45.960269575779435 0 0 0
304 0 5 0 0 10.1 -45.960269575779435 0 0 0
265 0 5 0 4.04 4.04 -47.98026957577944 0 0 0
266 0 5 0 6.0600000000000005 6.0600000000000005 -47.98026957577944 0 0 0
267 0 5 0 6.0600000000000005 4.04 -45.960269575779435 0 0 0
268 0 5 0 4.04 6.0600000000000005 -45.960269575779435 0 0 0
269 0 5 0 8.08 4.04 -47.98026957577944 0 0 0
270 0 5 0 10.1 6.0600000000000005 -47.98026957577944 0 0 0
271 0 5 0 10.1 4.04 -45.960269575779435 0 0 0
272 0 5 0 8.08 6.0600000000000005 -45.960269575779435 0 0 0
305 0 5 0 4.04 8.08 -47.98026957577944 0 0 0
306 0 5 0 6.0600000000000005 10.1 -47.98026957577944 0 0 0
307 0 5 0 6.0600000000000005 8.08 -45.960269575779435 0 0 0
308 0 5 0 4.04 10.1 -45.960269575779435 0 0 0
309 0 5 0 8.08 8.08 -47.98026957577944 0 0 0
310 0 5 0 10.1 10.1 -47.98026957577944 0 0 0
311 0 5 0 10.1 8.08 -45.960269575779435 0 0 0
312 0 5 0 8.08 10.1 -45.960269575779435 0 0 0
273 0 5 0 12.120000000000001 4.04 -47.98026957577944 0 0 0
274 0 5 0 14.14 6.0600000000000005 -47.98026957577944 0 0 0
275 0 5 0 14.14 4.04 -45.960269575779435 0 0 0
276 0 5 0 12.120000000000001 6.0600000000000005 -45.960269575779435 0 0 0
277 0 5 0 16.16 4.04 -47.98026957577944 0 0 0
278 0 5 0 18.18 6.0600000000000005 -47.98026957577944 0 0 0
279 0 5 0 18.18 4.04 -45.960269575779435 0 0 0
280 0 5 0 16.16 6.0600000000000005 -45.960269575779435 0 0 0
313 0 5 0 12.120000000000001 8.08 -47.98026957577944 0 0 0
314 0 5 0 14.14 10.1 -47.98026957577944 0 0 0
315 0 5 0 14.14 8.08 -45.960269575779435 0 0 0
316 0 5 0 12.120000000000001 10.1 -45.960269575779435 0 0 0
317 0 5 0 16.16 8.08 -47.98026957577944 0 0 0
318 0 5 0 18.18 10.1 -47.98026957577944 0 0 0
319 0 5 0 18.18 8.08 -45.960269575779435 0 0 0
320 0 5 0 16.16 10.1 -45.960269575779435 0 0 0
321 0 5 0 -20.2 12.120000000000001 -47.98026957577944 0 0 0
322 0 5 0 -18.18 14.14 -47.98026957577944 0 0 0
323 0 5 0 -18.18 12.120000000000001 -45.960269575779435 0 0 0
324 0 5 0 -20.2 14.14 -45.960269575779435 0 0 0
325 0 5 0 -16.16 12.120000000000001 -47.98026957577944 0 0 0
326 0 5 0 -14.14 14.14 -47.98026957577944 0 0 0
327 0 5 0 -14.14 12.120000000000001 -45.960269575779435 0 0 0
328 0 5 0 -16.16 14.14 -45.960269575779435 0 0 0
329 0 5 0 -12.120000000000001 12.120000000000001 -47.98026957577944 0 0 0
332 0 5 0 -12.120000000000001 14.14 -45.960269575779435 0 0 0
361 0 5 0 -20.2 16.16 -47.98026957577944 0 0 0
362 0 5 0 -18.18 18.18 -47.98026957577944 0 0 0
363 0 5 0 -18.18 16.16 -45.960269575779435 0 0 0
364 0 5 0 -20.2 18.18 -45.960269575779435 0 0 0
365 0 5 0 -16.16 16.16 -47.98026957577944 0 0 0
366 0 5 0 -14.14 18.18 -47.98026957577944 0 0 0
367 0 5 0 -14.14 16.16 -45.960269575779435 0 0 0
368 0 5 0 -16.16 18.18 -45.960269575779435 0 0 0
369 0 5 0 -12.120000000000001 16.16 -47.98026957577944 0 0 0
372 0 5 0 -12.120000000000001 18.18 -45.960269575779435 0 0 0
330 0 5 0 -10.1 14.14 -47.98026957577944 0 0 0
331 0 5 0 -10.1 12.120000000000001 -45.960269575779435 0 0 0
333 0 5 0 -8.08 12.120000000000001 -47.98026957577944 0 0 0
334 0 5 0 -6.0600000000000005 14.14 -47.98026957577944 0 0 0
335 0 5 0 -6.0600000000000005 12.120000000000001 -45.960269575779435 0 0 0
336 0 5 0 -8.08 14.14 -45.960269575779435 0 0 0
370 0 5 0 -10.1 18.18 -47.98026957577944 0 0 0
371 0 5 0 -10.1 16.16 -45.960269575779435 0 0 0
373 0 5 0 -8.08 16.16 -47.98026957577944 0 0 0
374 0 5 0 -6.0600000000000005 18.18 -47.98026957577944 0 0 0
375 0 5 0 -6.0600000000000005 16.16 -45.960269575779435 0 0 0
376 0 5 0 -8.08 18.18 -45.960269575779435 0 0 0
337 0 5 0 -4.04 12.120000000000001 -47.98026957577944 0 0 0
338 0 5 0 -2.02 14.14 -47.98026957577944 0 0 0
339 0 5 0 -2.02 12.120000000000001 -45.960269575779435 0 0 0
340 0 5 0 -4.04 14.14 -45.960269575779435 0 0 0
341 0 5 0 0 12.120000000000001 -47.98026957577944 0 0 0
342 0 5 0 2.02 14.14 -47.98026957577944 0 0 0
343 0 5 0 2.02 12.120000000000001 -45.960269575779435 0 0 0
344 0 5 0 0 14.14 -45.960269575779435 0 0 0
377 0 5 0 -4.04 16.16 -47.98026957577944 0 0 0
378 0 5 0 -2.02 18.18 -47.98026957577944 0 0 0
379 0 5 0 -2.02 16.16 -45.960269575779435 0 0 0
380 0 5 0 -4.04 18.18 -45.960269575779435 0 0 0
381 0 5 0 0 16.16 -47.98026957577944 0 0 0
382 0 5 0 2.02 18.18 -47.98026957577944 0 0 0
383 0 5 0 2.02 16.16 -45.960269575779435 0 0 0
384 0 5 0 0 18.18 -45.960269575779435 0 0 0
345 0 5 0 4.04 12.120000000000001 -47.98026957577944 0 0 0
346 0 5 0 6.0600000000000005 14.14 -47.98026957577944 0 0 0
347 0 5 0 6.0600000000000005 12.120000000000001 -45.960269575779435 0 0 0
348 0 5 0 4.04 14.14 -45.960269575779435 0 0 0
349 0 5 0 8.08 12.120000000000001 -47.98026957577944 0 0 0
350 0 5 0 10.1 14.14 -47.98026957577944 0 0 0
351 0 5 0 10.1 12.120000000000001 -45.960269575779435 0 0 0
352 0 5 0 8.08 14.14 -45.960269575779435 0 0 0
385 0 5 0 4.04 16.16 -47.98026957577944 0 0 0
386 0 5 0 6.0600000000000005 18.18 -47.98026957577944 0 0 0
387 0 5 0 6.0600000000000005 16.16 -45.960269575779435 0 0 0
388 0 5 0 4.04 18.18 -45.960269575779435 0 0 0
389 0 5 0 8.08 16.16 -47.98026957577944 0 0 0
390 0 5 0 10.1 18.18 -47.98026957577944 0 0 0
391 0 5 0 10.1 16.16 -45.960269575779435 0 0 0
392 0 5 0 8.08 18.18 -45.960269575779435 0 0 0
353 0 5 0 12.120000000000001 12.120000000000001 -47.98026957577944 0 0 0
354 0 5 0 14.14 14.14 -47.98026957577944 0 0 0
355 0 5 0 14.14 12.120000000000001 -45.960269575779435 0 0 0
356 0 5 0 12.120000000000001 14.14 -45.960269575779435 0 0 0
357 0 5 0 16.16 12.120000000000001 -47.98026957577944 0 0 0
358 0 5 0 18.18 14.14 -47.98026957577944 0 0 0
359 0 5 0 18.18 12.120000000000001 -45.960269575779435 0 0 0
360 0 5 0 16.16 14.14 -45.960269575779435 0 0 0
393 0 5 0 12.120000000000001 16.16 -47.98026957577944 0 0 0
394 0 5 0 14.14 18.18 -47.98026957577944 0 0 0
395 0 5 0 14.14 16.16 -45.960269575779435 0 0 0
396 0 5 0 12.120000000000001 18.18 -45.960269575779435 0 0 0
397 0 5 0 16.16 16.16 -47.98026957577944 0 0 0
398 0 5 0 18.18 18.18 -47.98026957577944 0 0 0
399 0 5 0 18.18 16.16 -45.960269575779435 0 0 0
400 0 5 0 16.16 18.18 -45.960269575779435 0 0 0
401 0 5 0 -20.2 -20.2 -43.94026957577943 0 0 0
402 0 5 0 -18.18 -18.18 -43.94026957577943 0 0 0
403 0 5 0 -18.18 -20.2 -41.920269575779436 0 0 0
404 0 5 0 -20.2 -18.18 -41.920269575779436 0 0 0
405 0 5 0 -16.16 -20.2 -43.94026957577943 0 0 0
406 0 5 0 -14.14 -18.18 -43.94026957577943 0 0 0
407 0 5 0 -14.14 -20.2 -41.920269575779436 0 0 0
408 0 5 0 -16.16 -18.18 -41.920269575779436 0 0 0
409 0 5 0 -12.120000000000001 -20.2 -43.94026957577943 0 0 0
412 0 5 0 -12.120000000000001 -18.18 -41.920269575779436 0 0 0
441 0 5 0 -20.2 -16.16 -43.94026957577943 0 0 0
442 0 5 0 -18.18 -14.14 -43.94026957577943 0 0 0
443 0 5 0 -18.18 -16.16 -41.920269575779436 0 0 0
444 0 5 0 -20.2 -14.14 -41.920269575779436 0 0 0
445 0 5 0 -16.16 -16.16 -43.94026957577943 0 0 0
446 0 5 0 -14.14 -14.14 -43.94026957577943 0 0 0
447 0 5 0 -14.14 -16.16 -41.920269575779436 0 0 0
448 0 5 0 -16.16 -14.14 -41.920269575779436 0 0 0
449 0 5 0 -12.120000000000001 -16.16 -43.94026957577943 0 0 0
452 0 5 0 -12.120000000000001 -14.14 -41.920269575779436 0 0 0
481 0 5 0 -20.2 -12.120000000000001 -43.94026957577943 0 0 0
483 0 5 0 -18.18 -12.120000000000001 -41.920269575779436 0 0 0
485 0 5 0 -16.16 -12.120000000000001 -43.94026957577943 0 0 0
487 0 5 0 -14.14 -12.120000000000001 -41.920269575779436 0 0 0
489 0 5 0 -12.120000000000001 -12.120000000000001 -43.94026957577943 0 0 0
801 0 5 0 -20.2 -20.2 -39.90026957577943 0 0 0
802 0 5 0 -18.18 -18.18 -39.90026957577943 0 0 0
803 0 5 0 -16.16 -20.2 -39.90026957577943 0 0 0
804 0 5 0 -14.14 -18.18 -39.90026957577943 0 0 0
805 0 5 0 -12.120000000000001 -20.2 -39.90026957577943 0 0 0
821 0 5 0 -20.2 -16.16 -39.90026957577943 0 0 0
822 0 5 0 -18.18 -14.14 -39.90026957577943 0 0 0
823 0 5 0 -16.16 -16.16 -39.90026957577943 0 0 0
824 0 5 0 -14.14 -14.14 -39.90026957577943 0 0 0
825 0 5 0 -12.120000000000001 -16.16 -39.90026957577943 0 0 0
841 0 5 0 -20.2 -12.120000000000001 -39.90026957577943 0 0 0
843 0 5 0 -16.16 -12.120000000000001 -39.90026957577943 0 0 0
845 0 5 0 -12.120000000000001 -12.120000000000001 -39.90026957577943 0 0 0
410 0 5 0 -10.1 -18.18 -43.94026957577943 0 0 0
411 0 5 0 -10.1 -20.2 -41.920269575779436 0 0 0
413 0 5 0 -8.08 -20.2 -43.94026957577943 0 0 0
414 0 5 0 -6.0600000000000005 -18.18 -43.94026957577943 0 0 0
415 0 5 0 -6.0600000000000005 -20.2 -41.920269575779436 0 0 0
416 0 5 0 -8.08 -18.18 -41.920269575779436 0 0 0
450 0 5 0 -10.1 -14.14 -43.94026957577943 0 0 0
451 0 5 0 -10.1 -16.16 -41.920269575779436 0 0 0
453 0 5 0 -8.08 -16.16 -43.94026957577943 0 0 0
454 0 5 0 -6.0600000000000005 -14.14 -43.94026957577943 0 0 0
455 0 5 0 -6.0600000000000005 -16.16 -41.920269575779436 0 0 0
456 0 5 0 -8.08 -14.14 -41.920269575779436 0 0 0
491 0 5 0 -10.1 -12.120000000000001 -41.920269575779436 0 0 0
493 0 5 0 -8.08 -12.120000000000001 -43.94026957577943 0 0 0
495 0 5 0 -6.0600000000000005 -12.120000000000001 -41.920269575779436 0 0 0
806 0 5 0 -10.1 -18.18 -39.90026957577943 0 0 0
807 0 5 0 -8.08 -20.2 -39.90026957577943 0 0 0
808 0 5 0 -6.0600000000000005 -18.18 -39.90026957577943 0 0 0
826 0 5 0 -10.1 -14.14 -39.90026957577943 0 0 0
827 0 5 0 -8.08 -16.16 -39.90026957577943 0 0 0
828 0 5 0 -6.0600000000000005 -14.14 -39.90026957577943 0 0 0
847 0 5 0 -8.08 -12.120000000000001 -39.90026957577943 0 0 0
417 0 5 0 -4.04 -20.2 -43.94026957577943 0 0 0
418 0 5 0 -2.02 -18.18 -43.94026957577943 0 0 0
419 0 5 0 -2.02 -20.2 -41.920269575779436 0 0 0
420 0 5 0 -4.04 -18.18 -41.920269575779436 0 0 0
421 0 5 0 0 -20.2 -43.94026957577943 0 0 0
422 0 5 0 2.02 -18.18 -43.94026957577943 0 0 0
423 0 5 0 2.02 -20.2 -41.920269575779436 0 0 0
424 0 5 0 0 -18.18 -41.920269575779436 0 0 0
457 0 5 0 -4.04 -16.16 -43.94026957577943 0 0 0
458 0 5 0 -2.02 -14.14 -43.94026957577943 0 0 0
459 0 5 0 -2.02 -16.16 -41.920269575779436 0 0 0
460 0 5 0 -4.04 -14.14 -41.920269575779436 0 0 0
461 0 5 0 0 -16.16 -43.94026957577943 0 0 0
462 0 5 0 2.02 -14.14 -43.94026957577943 0 0 0
463 0 5 0 2.02 -16.16 -41.920269575779436 0 0 0
464 0 5 0 0 -14.14 -41.920269575779436 0 0 0
497 0 5 0 -4.04 -12.120000000000001 -43.94026957577943 0 0 0
499 0 5 0 -2.02 -12.120000000000001 -41.920269575779436 0 0 0
501 0 5 0 0 -12.120000000000001 -43.94026957577943 0 0 0
503 0 5 0 2.02 -12.120000000000001 -41.920269575779436 0 0 0
809 0 5 0 -4.04 -20.2 -39.90026957577943 0 0 0
810 0 5 0 -2.02 -18.18 -39.90026957577943 0 0 0
811 0 5 0 0 -20.2 -39.90026957577943 0 0 0
812 0 5 0 2.02 -18.18 -39.90026957577943 0 0 0
829 0 5 0 -4.04 -16.16 -39.90026957577943 0 0 0
830 0 5 0 -2.02 -14.14 -39.90026957577943 0 0 0
831 0 5 0 0 -16.16 -39.90026957577943 0 0 0
832 0 5 0 2.02 -14.14 -39.90026957577943 0 0 0
849 0 5 0 -4.04 -12.120000000000001 -39.90026957577943 0 0 0
851 0 5 0 0 -12.120000000000001 -39.90026957577943 0 0 0
425 0 5 0 4.04 -20.2 -43.94026957577943 0 0 0
426 0 5 0 6.0600000000000005 -18.18 -43.94026957577943 0 0 0
427 0 5 0 6.0600000000000005 -20.2 -41.920269575779436 0 0 0
428 0 5 0 4.04 -18.18 -41.920269575779436 0 0 0
429 0 5 0 8.08 -20.2 -43.94026957577943 0 0 0
430 0 5 0 10.1 -18.18 -43.94026957577943 0 0 0
431 0 5 0 10.1 -20.2 -41.920269575779436 0 0 0
432 0 5 0 8.08 -18.18 -41.920269575779436 0 0 0
465 0 5 0 4.04 -16.16 -43.94026957577943 0 0 0
466 0 5 0 6.0600000000000005 -14.14 -43.94026957577943 0 0 0
467 0 5 0 6.0600000000000005 -16.16 -41.920269575779436 0 0 0
468 0 5 0 4.04 -14.14 -41.920269575779436 0 0 0
469 0 5 0 8.08 -16.16 -43.94026957577943 0 0 0
470 0 5 0 10.1 -14.14 -43.94026957577943 0 0 0
471 0 5 0 10.1 -16.16 -41.920269575779436 0 0 0
472 0 5 0 8.08 -14.14 -41.920269575779436 0 0 0
505 0 5 0 4.04 -12.120000000000001 -43.94026957577943 0 0 0
507 0 5 0 6.0600000000000005 -12.120000000000001 -41.920269575779436 0 0 0
509 0 5 0 8.08 -12.120000000000001 -43.94026957577943 0 0 0
511 0 5 0 10.1 -12.120000000000001 -41.920269575779436 0 0 0
813 0 5 0 4.04 -20.2 -39.90026957577943 0 0 0
814 0 5 0 6.0600000000000005 -18.18 -39.90026957577943 0 0 0
815 0 5 0 8.08 -20.2 -39.90026957577943 0 0 0
816 0 5 0 10.1 -18.18 -39.90026957577943 0 0 0
833 0 5 0 4.04 -16.16 -39.90026957577943 0 0 0
834 0 5 0 6.0600000000000005 -14.14 -39.90026957577943 0 0 0
835 0 5 0 8.08 -16.16 -39.90026957577943 0 0 0
836 0 5 0 10.1 -14.14 -39.90026957577943 0 0 0
853 0 5 0 4.04 -12.120000000000001 -39.90026957577943 0 0 0
855 0 5 0 8.08 -12.120000000000001 -39.90026957577943 0 0 0
433 0 5 0 12.120000000000001 -20.2 -43.94026957577943 0 0 0
434 0 5 0 14.14 -18.18 -43.94026957577943 0 0 0
435 0 5 0 14.14 -20.2 -41.920269575779436 0 0 0
436 0 5 0 12.120000000000001 -18.18 -41.920269575779436 0 0 0
437 0 5 0 16.16 -20.2 -43.94026957577943 0 0 0
438 0 5 0 18.18 -18.18 -43.94026957577943 0 0 0
439 0 5 0 18.18 -20.2 -41.920269575779436 0 0 0
440 0 5 0 16.16 -18.18 -41.920269575779436 0 0 0
473 0 5 0 12.120000000000001 -16.16 -43.94026957577943 0 0 0
474 0 5 0 14.14 -14.14 -43.94026957577943 0 0 0
475 0 5 0 14.14 -16.16 -41.920269575779436 0 0 0
476 0 5 0 12.120000000000001 -14.14 -41.920269575779436 0 0 0
477 0 5 0 16.16 -16.16 -43.94026957577943 0 0 0
478 0 5 0 18.18 -14.14 -43.94026957577943 0 0 0
479 0 5 0 18.18 -16.16 -41.920269575779436 0 0 0
480 0 5 0 16.16 -14.14 -41.920269575779436 0 0 0
513 0 5 0 12.120000000000001 -12.120000000000001 -43.94026957577943 0 0 0
515 0 5 0 14.14 -12.120000000000001 -41.920269575779436 0 0 0
517 0 5 0 16.16 -12.120000000000001 -43.94026957577943 0 0 0
519 0 5 0 18.18 -12.120000000000001 -41.920269575779436 0 0 0
817 0 5 0 12.120000000000001 -20.2 -39.90026957577943 0 0 0
818 0 5 0 14.14 -18.18 -39.90026957577943 0 0 0
819 0 5 0 16.16 -20.2 -39.90026957577943 0 0 0
820 0 5 0 18.18 -18.18 -39.90026957577943 0 0 0
837 0 5 0 12.120000000000001 -16.16 -39.90026957577943 0 0 0
838 0 5 0 14.14 -14.14 -39.90026957577943 0 0 0
839 0 5 0 16.16 -16.16 -39.90026957577943 0 0 0
840 0 5 0 18.18 -14.14 -39.90026957577943 0 0 0
857 0 5 0 12.120000000000001 -12.120000000000001 -39.90026957577943 0 0 0
859 0 5 0 16.16 -12.120000000000001 -39.90026957577943 0 0 0
482 0 5 0 -18.18 -10.1 -43.94026957577943 0 0 0
484 0 5 0 -20.2 -10.1 -41.920269575779436 0 0 0
486 0 5 0 -14.14 -10.1 -43.94026957577943 0 0 0
488 0 5 0 -16.16 -10.1 -41.920269575779436 0 0 0
492 0 5 0 -12.120000000000001 -10.1 -41.920269575779436 0 0 0
521 0 5 0 -20.2 -8.08 -43.94026957577943 0 0 0
522 0 5 0 -18.18 -6.0600000000000005 -43.94026957577943 0 0 0
523 0 5 0 -18.18 -8.08 -41.920269575779436 0 0 0
524 0 5 0 -20.2 -6.0600000000000005 -41.920269575779436 0 0 0
525 0 5 0 -16.16 -8.08 -43.94026957577943 0 0 0
526 0 5 0 -14.14 -6.0600000000000005 -43.94026957577943 0 0 0
527 0 5 0 -14.14 -8.08 -41.920269575779436 0 0 0
528 0 5 0 -16.16 -6.0600000000000005 -41.920269575779436 0 0 0