ITEM: TIMESTEP
0
ITEM: NUMBER OF ATOMS
7700
ITEM: BOX BOUNDS pp pp pp
-2.0199999999999999e+01 2.0199999999999999e+01
-2.0199999999999999e+01 2.0199999999999999e+01
-5.2520000000000003e+01 5.2520000000000003e+01
ITEM: ATOMS id type xs ys zs
1 5 0 0 0.0384615
2 5 0.05 0.05 0.0384615
3 5 0.05 0 0.0576923
4 5 0 0.05 0.0576923
5 5 0.1 0 0.0384615
6 5 0.15 0.05 0.0384615
7 5 0.15 0 0.0576923
8 5 0.1 0.05 0.0576923
9 5 0.2 0 0.0384615
12 5 0.2 0.05 0.0576923
41 5 0 0.1 0.0384615
42 5 0.05 0.15 0.0384615
43 5 0.05 0.1 0.0576923
44 5 0 0.15 0.0576923
45 5 0.1 0.1 0.0384615
46 5 0.15 0.15 0.0384615
47 5 0.15 0.1 0.0576923
48 5 0.1 0.15 0.0576923
49 5 0.2 0.1 0.0384615
52 5 0.2 0.15 0.0576923
81 5 0 0.2 0.0384615
83 5 0.05 0.2 0.0576923
85 5 0.1 0.2 0.0384615
87 5 0.15 0.2 0.0576923
89 5 0.2 0.2 0.0384615
10 5 0.25 0.05 0.0384615
11 5 0.25 0 0.0576923
13 5 0.3 0 0.0384615
14 5 0.35 0.05 0.0384615
15 5 0.35 0 0.0576923
16 5 0.3 0.05 0.0576923
50 5 0.25 0.15 0.0384615
51 5 0.25 0.1 0.0576923
53 5 0.3 0.1 0.0384615
54 5 0.35 0.15 0.0384615
55 5 0.35 0.1 0.0576923
56 5 0.3 0.15 0.0576923
91 5 0.25 0.2 0.0576923
93 5 0.3 0.2 0.0384615
95 5 0.35 0.2 0.0576923
17 5 0.4 0 0.0384615
18 5 0.45 0.05 0.0384615
19 5 0.45 0 0.0576923
20 5 0.4 0.05 0.0576923
21 5 0.5 0 0.0384615
22 5 0.55 0.05 0.0384615
23 5 0.55 0 0.0576923
24 5 0.5 0.05 0.0576923
57 5 0.4 0.1 0.0384615
58 5 0.45 0.15 0.0384615
59 5 0.45 0.1 0.0576923
60 5 0.4 0.15 0.0576923
61 5 0.5 0.1 0.0384615
62 5 0.55 0.15 0.0384615
63 5 0.55 0.1 0.0576923
64 5 0.5 0.15 0.0576923
97 5 0.4 0.2 0.0384615
99 5 0.45 0.2 0.0576923
101 5 0.5 0.2 0.0384615
103 5 0.55 0.2 0.0576923
25 5 0.6 0 0.0384615
26 5 0.65 0.05 0.0384615
27 5 0.65 0 0.0576923
28 5 0.6 0.05 0.0576923
29 5 0.7 0 0.0384615
30 5 0.75 0.05 0.0384615
31 5 0.75 0 0.0576923
32 5 0.7 0.05 0.0576923
65 5 0.6 0.1 0.0384615
66 5 0.65 0.15 0.0384615
67 5 0.65 0.1 0.0576923
68 5 0.6 0.15 0.0576923
69 5 0.7 0.1 0.0384615
70 5 0.75 0.15 0.0384615
71 5 0.75 0.1 0.0576923
72 5 0.7 0.15 0.0576923
105 5 0.6 0.2 0.0384615
107 5 0.65 0.2 0.0576923
109 5 0.7 0.2 0.0384615
111 5 0.75 0.2 0.0576923
33 5 0.8 0 0.0384615
34 5 0.85 0.05 0.0384615
35 5 0.85 0 0.0576923
36 5 0.8 0.05 0.0576923
37 5 0.9 0 0.0384615
38 5 0.95 0.05 0.0384615
39 5 0.95 0 0.0576923
40 5 0.9 0.05 0.0576923
73 5 0.8 0.1 0.0384615
74 5 0.85 0.15 0.0384615
75 5 0.85 0.1 0.0576923
76 5 0.8 0.15 0.0576923
77 5 0.9 0.1 0.0384615
78 5 0.95 0.15 0.0384615
79 5 0.95 0.1 0.0576923
80 5 0.9 0.15 0.0576923
113 5 0.8 0.2 0.0384615
115 5 0.85 0.2 0.0576923
117 5 0.9 0.2 0.0384615
119 5 0.95 0.2 0.0576923
82 5 0.05 0.25 0.0384615
84 5 0 0.25 0.0576923
86 5 0.15 0.25 0.0384615
88 5 0.1 0.25 0.0576923
92 5 0.2 0.25 0.0576923
121 5 0 0.3 0.0384615
122 5 0.05 0.35 0.0384615
123 5 0.05 0.3 0.0576923
124 5 0 0.35 0.0576923
125 5 0.1 0.3 0.0384615
126 5 0.15 0.35 0.0384615
127 5 0.15 0.3 0.0576923
128 5 0.1 0.35 0.0576923
129 5 0.2 0.3 0.0384615
132 5 0.2 0.35 0.0576923
90 5 0.25 0.25 0.0384615
94 5 0.35 0.25 0.0384615
96 5 0.3 0.25 0.0576923
130 5 0.25 0.35 0.0384615
131 5 0.25 0.3 0.0576923
133 5 0.3 0.3 0.0384615
134 5 0.35 0.35 0.0384615
135 5 0.35 0.3 0.0576923
136 5 0.3 0.35 0.0576923
98 5 0.45 0.25 0.0384615
100 5 0.4 0.25 0.0576923
102 5 0.55 0.25 0.0384615
104 5 0.5 0.25 0.0576923
137 5 0.4 0.3 0.0384615
138 5 0.45 0.35 0.0384615
139 5 0.45 0.3 0.0576923
140 5 0.4 0.35 0.0576923
141 5 0.5 0.3 0.0384615
142 5 0.55 0.35 0.0384615
143 5 0.55 0.3 0.0576923
144 5 0.5 0.35 0.0576923
106 5 0.65 0.25 0.0384615
108 5 0.6 0.25 0.0576923
110 5 0.75 0.25 0.0384615
112 5 0.7 0.25 0.0576923
145 5 0.6 0.3 0.0384615
146 5 0.65 0.35 0.0384615
147 5 0.65 0.3 0.0576923
148 5 0.6 0.35 0.0576923
149 5 0.7 0.3 0.0384615
150 5 0.75 0.35 0.0384615
151 5 0.75 0.3 0.0576923
152 5 0.7 0.35 0.0576923
114 5 0.85 0.25 0.0384615
116 5 0.8 0.25 0.0576923
118 5 0.95 0.25 0.0384615
120 5 0.9 0.25 0.0576923
153 5 0.8 0.3 0.0384615
154 5 0.85 0.35 0.0384615
155 5 0.85 0.3 0.0576923
156 5 0.8 0.35 0.0576923
157 5 0.9 0.3 0.0384615
158 5 0.95 0.35 0.0384615
159 5 0.95 0.3 0.0576923
160 5 0.9 0.35 0.0576923
161 5 0 0.4 0.0384615
162 5 0.05 0.45 0.0384615
163 5 0.05 0.4 0.0576923
164 5 0 0.45 0.0576923
165 5 0.1 0.4 0.0384615
166 5 0.15 0.45 0.0384615
167 5 0.15 0.4 0.0576923
168 5 0.1 0.45 0.0576923
169 5 0.2 0.4 0.0384615
172 5 0.2 0.45 0.0576923
201 5 0 0.5 0.0384615
202 5 0.05 0.55 0.0384615
203 5 0.05 0.5 0.0576923
204 5 0 0.55 0.0576923
205 5 0.1 0.5 0.0384615
206 5 0.15 0.55 0.0384615
207 5 0.15 0.5 0.0576923
208 5 0.1 0.55 0.0576923
209 5 0.2 0.5 0.0384615
212 5 0.2 0.55 0.0576923
170 5 0.25 0.45 0.0384615
171 5 0.25 0.4 0.0576923
173 5 0.3 0.4 0.0384615
174 5 0.35 0.45 0.0384615
175 5 0.35 0.4 0.0576923
176 5 0.3 0.45 0.0576923
210 5 0.25 0.55 0.0384615
211 5 0.25 0.5 0.0576923
213 5 0.3 0.5 0.0384615
214 5 0.35 0.55 0.0384615
215 5 0.35 0.5 0.0576923
216 5 0.3 0.55 0.0576923
177 5 0.4 0.4 0.0384615
178 5 0.45 0.45 0.0384615
179 5 0.45 0.4 0.0576923
180 5 0.4 0.45 0.0576923
181 5 0.5 0.4 0.0384615
182 5 0.55 0.45 0.0384615
183 5 0.55 0.4 0.0576923
184 5 0.5 0.45 0.0576923
217 5 0.4 0.5 0.0384615
218 5 0.45 0.55 0.0384615
219 5 0.45 0.5 0.0576923
220 5 0.4 0.55 0.0576923
221 5 0.5 0.5 0.0384615
222 5 0.55 0.55 0.0384615
223 5 0.55 0.5 0.0576923
224 5 0.5 0.55 0.0576923
185 5 0.6 0.4 0.0384615
186 5 0.65 0.45 0.0384615
187 5 0.65 0.4 0.0576923
188 5 0.6 0.45 0.0576923
189 5 0.7 0.4 0.0384615
190 5 0.75 0.45 0.0384615
191 5 0.75 0.4 0.0576923
192 5 0.7 0.45 0.0576923
225 5 0.6 0.5 0.0384615
226 5 0.65 0.55 0.0384615
227 5 0.65 0.5 0.0576923
228 5 0.6 0.55 0.0576923
229 5 0.7 0.5 0.0384615
230 5 0.75 0.55 0.0384615
231 5 0.75 0.5 0.0576923
232 5 0.7 0.55 0.0576923
193 5 0.8 0.4 0.0384615
194 5 0.85 0.45 0.0384615
195 5 0.85 0.4 0.0576923
196 5 0.8 0.45 0.0576923
197 5 0.9 0.4 0.0384615
198 5 0.95 0.45 0.0384615
199 5 0.95 0.4 0.0576923
200 5 0.9 0.45 0.0576923
233 5 0.8 0.5 0.0384615
234 5 0.85 0.55 0.0384615
235 5 0.85 0.5 0.0576923
236 5 0.8 0.55 0.0576923
237 5 0.9 0.5 0.0384615
238 5 0.95 0.55 0.0384615
239 5 0.95 0.5 0.0576923
240 5 0.9 0.55 0.0576923
241 5 0 0.6 0.0384615
242 5 0.05 0.65 0.0384615
243 5 0.05 0.6 0.0576923
244 5 0 0.65 0.0576923
245 5 0.1 0.6 0.0384615
246 5 0.15 0.65 0.0384615
247 5 0.15 0.6 0.0576923
248 5 0.1 0.65 0.0576923
249 5 0.2 0.6 0.0384615
252 5 0.2 0.65 0.0576923
281 5 0 0.7 0.0384615
282 5 0.05 0.75 0.0384615
283 5 0.05 0.7 0.0576923
284 5 0 0.75 0.0576923
285 5 0.1 0.7 0.0384615
286 5 0.15 0.75 0.0384615
287 5 0.15 0.7 0.0576923
288 5 0.1 0.75 0.0576923
289 5 0.2 0.7 0.0384615
292 5 0.2 0.75 0.0576923
250 5 0.25 0.65 0.0384615
251 5 0.25 0.6 0.0576923
253 5 0.3 0.6 0.0384615
254 5 0.35 0.65 0.0384615
255 5 0.35 0.6 0.0576923
256 5 0.3 0.65 0.0576923
290 5 0.25 0.75 0.0384615
291 5 0.25 0.7 0.0576923
293 5 0.3 0.7 0.0384615
294 5 0.35 0.75 0.0384615
295 5 0.35 0.7 0.0576923
296 5 0.3 0.75 0.0576923
257 5 0.4 0.6 0.0384615
258 5 0.45 0.65 0.0384615
259 5 0.45 0.6 0.0576923
260 5 0.4 0.65 0.0576923
261 5 0.5 0.6 0.0384615
262 5 0.55 0.65 0.0384615
263 5 0.55 0.6 0.0576923
264 5 0.5 0.65 0.0576923
297 5 0.4 0.7 0.0384615
298 5 0.45 0.75 0.0384615
299 5 0.45 0.7 0.0576923
300 5 0.4 0.75 0.0576923
301 5 0.5 0.7 0.0384615
302 5 0.55 0.75 0.0384615
303 5 0.55 0.7 0.0576923
304 5 0.5 0.75 0.0576923
265 5 0.6 0.6 0.0384615
266 5 0.65 0.65 0.0384615
267 5 0.65 0.6 0.0576923
268 5 0.6 0.65 0.0576923
269 5 0.7 0.6 0.0384615
270 5 0.75 0.65 0.0384615
271 5 0.75 0.6 0.0576923
272 5 0.7 0.65 0.0576923
305 5 0.6 0.7 0.0384615
306 5 0.65 0.75 0.0384615
307 5 0.65 0.7 0.0576923
308 5 0.6 0.75 0.0576923
309 5 0.7 0.7 0.0384615
310 5 0.75 0.75 0.0384615
311 5 0.75 0.7 0.0576923
312 5 0.7 0.75 0.0576923
273 5 0.8 0.6 0.0384615
274 5 0.85 0.65 0.0384615
275 5 0.85 0.6 0.0576923
276 5 0.8 0.65 0.0576923
277 5 0.9 0.6 0.0384615
278 5 0.95 0.65 0.0384615
279 5 0.95 0.6 0.0576923
280 5 0.9 0.65 0.0576923
313 5 0.8 0.7 0.0384615
314 5 0.85 0.75 0.0384615
315 5 0.85 0.7 0.0576923
316 5 0.8 0.75 0.0576923
317 5 0.9 0.7 0.0384615
318 5 0.95 0.75 0.0384615
319 5 0.95 0.7 0.0576923
320 5 0.9 0.75 0.0576923
321 5 0 0.8 0.0384615
322 5 0.05 0.85 0.0384615
323 5 0.05 0.8 0.0576923
324 5 0 0.85 0.0576923
325 5 0.1 0.8 0.0384615
326 5 0.15 0.85 0.0384615
327 5 0.15 0.8 0.0576923
328 5 0.1 0.85 0.0576923
329 5 0.2 0.8 0.0384615
332 5 0.2 0.85 0.0576923
361 5 0 0.9 0.0384615
362 5 0.05 0.95 0.0384615
363 5 0.05 0.9 0.0576923
364 5 0 0.95 0.0576923
365 5 0.1 0.9 0.0384615
366 5 0.15 0.95 0.0384615
367 5 0.15 0.9 0.0576923
368 5 0.1 0.95 0.0576923
369 5 0.2 0.9 0.0384615
372 5 0.2 0.95 0.0576923
330 5 0.25 0.85 0.0384615
331 5 0.25 0.8 0.0576923
333 5 0.3 0.8 0.0384615
334 5 0.35 0.85 0.0384615
335 5 0.35 0.8 0.0576923
336 5 0.3 0.85 0.0576923
370 5 0.25 0.95 0.0384615
371 5 0.25 0.9 0.0576923
373 5 0.3 0.9 0.0384615
374 5 0.35 0.95 0.0384615
375 5 0.35 0.9 0.0576923
376 5 0.3 0.95 0.0576923
337 5 0.4 0.8 0.0384615
338 5 0.45 0.85 0.0384615
339 5 0.45 0.8 0.0576923
340 5 0.4 0.85 0.0576923
341 5 0.5 0.8 0.0384615
342 5 0.55 0.85 0.0384615
343 5 0.55 0.8 0.0576923
344 5 0.5 0.85 0.0576923
377 5 0.4 0.9 0.0384615
378 5 0.45 0.95 0.0384615
379 5 0.45 0.9 0.0576923
380 5 0.4 0.95 0.0576923
381 5 0.5 0.9 0.0384615
382 5 0.55 0.95 0.0384615
383 5 0.55 0.9 0.0576923
384 5 0.5 0.95 0.0576923
345 5 0.6 0.8 0.0384615
346 5 0.65 0.85 0.0384615
347 5 0.65 0.8 0.0576923
348 5 0.6 0.85 0.0576923
349 5 0.7 0.8 0.0384615
350 5 0.75 0.85 0.0384615
351 5 0.75 0.8 0.0576923
352 5 0.7 0.85 0.0576923
385 5 0.6 0.9 0.0384615
386 5 0.65 0.95 0.0384615
387 5 0.65 0.9 0.0576923
388 5 0.6 0.95 0.0576923
389 5 0.7 0.9 0.0384615
390 5 0.75 0.95 0.0384615
391 5 0.75 0.9 0.0576923
392 5 0.7 0.95 0.0576923
353 5 0.8 0.8 0.0384615
354 5 0.85 0.85 0.0384615
355 5 0.85 0.8 0.0576923
356 5 0.8 0.85 0.0576923
357 5 0.9 0.8 0.0384615
358 5 0.95 0.85 0.0384615
359 5 0.95 0.8 0.0576923
360 5 0.9 0.85 0.0576923
393 5 0.8 0.9 0.0384615
394 5 0.85 0.95 0.0384615
395 5 0.85 0.9 0.0576923
396 5 0.8 0.95 0.0576923
397 5 0.9 0.9 0.0384615
398 5 0.95 0.95 0.0384615
399 5 0.95 0.9 0.0576923
400 5 0.9 0.95 0.0576923
401 5 0 0 0.0769231
402 5 0.05 0.05 0.0769231
403 5 0.05 0 0.0961538
404 5 0 0.05 0.0961538
405 5 0.1 0 0.0769231
406 5 0.15 0.05 0.0769231
407 5 0.15 0 0.0961538
408 5 0.1 0.05 0.0961538
409 5 0.2 0 0.0769231
412 5 0.2 0.05 0.0961538
441 5 0 0.1 0.0769231
442 5 0.05 0.15 0.0769231
443 5 0.05 0.1 0.0961538
444 5 0 0.15 0.0961538
445 5 0.1 0.1 0.0769231
446 5 0.15 0.15 0.0769231
447 5 0.15 0.1 0.0961538
448 5 0.1 0.15 0.0961538
449 5 0.2 0.1 0.0769231
452 5 0.2 0.15 0.0961538
481 5 0 0.2 0.0769231
483 5 0.05 0.2 0.0961538
485 5 0.1 0.2 0.0769231
487 5 0.15 0.2 0.0961538
489 5 0.2 0.2 0.0769231
801 5 0 0 0.115385
802 5 0.05 0.05 0.115385
803 5 0.1 0 0.115385
804 5 0.15 0.05 0.115385
805 5 0.2 0 0.115385
821 5 0 0.1 0.115385
822 5 0.05 0.15 0.115385
823 5 0.1 0.1 0.115385
824 5 0.15 0.15 0.115385
825 5 0.2 0.1 0.115385
841 5 0 0.2 0.115385
843 5 0.1 0.2 0.115385
845 5 0.2 0.2 0.115385
410 5 0.25 0.05 0.0769231
411 5 0.25 0 0.0961538
413 5 0.3 0 0.0769231
414 5 0.35 0.05 0.0769231
415 5 0.35 0 0.0961538
416 5 0.3 0.05 0.0961538
450 5 0.25 0.15 0.0769231
451 5 0.25 0.1 0.0961538
453 5 0.3 0.1 0.0769231
454 5 0.35 0.15 0.0769231
455 5 0.35 0.1 0.0961538
456 5 0.3 0.15 0.0961538
491 5 0.25 0.2 0.0961538
493 5 0.3 0.2 0.0769231
495 5 0.35 0.2 0.0961538
806 5 0.25 0.05 0.115385
807 5 0.3 0 0.115385
808 5 0.35 0.05 0.115385
826 5 0.25 0.15 0.115385
827 5 0.3 0.1 0.115385
828 5 0.35 0.15 0.115385
847 5 0.3 0.2 0.115385
417 5 0.4 0 0.0769231
418 5 0.45 0.05 0.0769231
419 5 0.45 0 0.0961538
420 5 0.4 0.05 0.0961538
421 5 0.5 0 0.0769231
422 5 0.55 0.05 0.0769231
423 5 0.55 0 0.0961538
424 5 0.5 0.05 0.0961538
457 5 0.4 0.1 0.0769231
458 5 0.45 0.15 0.0769231
459 5 0.45 0.1 0.0961538
460 5 0.4 0.15 0.0961538
461 5 0.5 0.1 0.0769231
462 5 0.55 0.15 0.0769231
463 5 0.55 0.1 0.0961538
464 5 0.5 0.15 0.0961538
497 5 0.4 0.2 0.0769231
499 5 0.45 0.2 0.0961538
501 5 0.5 0.2 0.0769231
503 5 0.55 0.2 0.0961538
809 5 0.4 0 0.115385
810 5 0.45 0.05 0.115385
811 5 0.5 0 0.115385
812 5 0.55 0.05 0.115385
829 5 0.4 0.1 0.115385
830 5 0.45 0.15 0.115385
831 5 0.5 0.1 0.115385
832 5 0.55 0.15 0.115385
849 5 0.4 0.2 0.115385
851 5 0.5 0.2 0.115385
425 5 0.6 0 0.0769231
426 5 0.65 0.05 0.0769231
427 5 0.65 0 0.0961538
428 5 0.6 0.05 0.0961538
429 5 0.7 0 0.0769231
430 5 0.75 0.05 0.0769231
431 5 0.75 0 0.0961538
432 5 0.7 0.05 0.0961538
465 5 0.6 0.1 0.0769231
466 5 0.65 0.15 0.0769231
467 5 0.65 0.1 0.0961538
468 5 0.6 0.15 0.0961538
469 5 0.7 0.1 0.0769231
470 5 0.75 0.15 0.0769231
471 5 0.75 0.1 0.0961538
472 5 0.7 0.15 0.0961538
505 5 0.6 0.2 0.0769231
507 5 0.65 0.2 0.0961538
509 5 0.7 0.2 0.0769231
511 5 0.75 0.2 0.0961538
813 5 0.6 0 0.115385
814 5 0.65 0.05 0.115385
815 5 0.7 0 0.115385
816 5 0.75 0.05 0.115385
833 5 0.6 0.1 0.115385
834 5 0.65 0.15 0.115385
835 5 0.7 0.1 0.115385
836 5 0.75 0.15 0.115385
853 5 0.6 0.2 0.115385
855 5 0.7 0.2 0.115385
433 5 0.8 0 0.0769231
434 5 0.85 0.05 0.0769231
435 5 0.85 0 0.0961538
436 5 0.8 0.05 0.0961538
437 5 0.9 0 0.0769231
438 5 0.95 0.05 0.0769231
439 5 0.95 0 0.0961538
440 5 0.9 0.05 0.0961538
473 5 0.8 0.1 0.0769231
474 5 0.85 0.15 0.0769231
475 5 0.85 0.1 0.0961538
476 5 0.8 0.15 0.0961538
477 5 0.9 0.1 0.0769231
478 5 0.95 0.15 0.0769231
479 5 0.95 0.1 0.0961538
480 5 0.9 0.15 0.0961538
513 5 0.8 0.2 0.0769231
515 5 0.85 0.2 0.0961538
517 5 0.9 0.2 0.0769231
519 5 0.95 0.2 0.0961538
817 5 0.8 0 0.115385
818 5 0.85 0.05 0.115385
819 5 0.9 0 0.115385
820 5 0.95 0.05 0.115385
837 5 0.8 0.1 0.115385
838 5 0.85 0.15 0.115385
839 5 0.9 0.1 0.115385
840 5 0.95 0.15 0.115385
857 5 0.8 0.2 0.115385
859 5 0.9 0.2 0.115385
482 5 0.05 0.25 0.0769231
484 5 0 0.25 0.0961538
486 5 0.15 0.25 0.0769231
488 5 0.1 0.25 0.0961538
492 5 0.2 0.25 0.0961538
521 5 0 0.3 0.0769231
522 5 0.05 0.35 0.0769231
523 5 0.05 0.3 0.0961538
524 5 0 0.35 0.0961538
525 5 0.1 0.3 0.0769231
526 5 0.15 0.35 0.0769231
527 5 0.15 0.3 0.0961538
528 5 0.1 0.35 0.0961538
529 5 0.2 0.3 0.0769231
532 5 0.2 0.35 0.0961538
842 5 0.05 0.25 0.115385
844 5 0.15 0.25 0.115385
861 5 0 0.3 0.115385
862 5 0.05 0.35 0.115385
863 5 0.1 0.3 0.115385
864 5 0.15 0.35 0.115385
865 5 0.2 0.3 0.115385
490 5 0.25 0.25 0.0769231
494 5 0.35 0.25 0.0769231
496 5 0.3 0.25 0.0961538
530 5 0.25 0.35 0.0769231
531 5 0.25 0.3 0.0961538
533 5 0.3 0.3 0.0769231
534 5 0.35 0.35 0.0769231
535 5 0.35 0.3 0.0961538
536 5 0.3 0.35 0.0961538
846 5 0.25 0.25 0.115385
848 5 0.35 0.25 0.115385
866 5 0.25 0.35 0.115385
867 5 0.3 0.3 0.115385
868 5 0.35 0.35 0.115385
498 5 0.45 0.25 0.0769231
500 5 0.4 0.25 0.0961538
502 5 0.55 0.25 0.0769231
504 5 0.5 0.25 0.0961538
537 5 0.4 0.3 0.0769231
538 5 0.45 0.35 0.0769231
539 5 0.45 0.3 0.0961538
540 5 0.4 0.35 0.0961538
541 5 0.5 0.3 0.0769231
542 5 0.55 0.35 0.0769231
543 5 0.55 0.3 0.0961538
544 5 0.5 0.35 0.0961538
850 5 0.45 0.25 0.115385
852 5 0.55 0.25 0.115385
869 5 0.4 0.3 0.115385
870 5 0.45 0.35 0.115385
871 5 0.5 0.3 0.115385
872 5 0.55 0.35 0.115385
506 5 0.65 0.25 0.0769231
508 5 0.6 0.25 0.0961538
510 5 0.75 0.25 0.0769231
512 5 0.7 0.25 0.0961538
545 5 0.6 0.3 0.0769231
546 5 0.65 0.35 0.0769231
547 5 0.65 0.3 0.0961538
548 5 0.6 0.35 0.0961538
549 5 0.7 0.3 0.0769231
550 5 0.75 0.35 0.0769231
551 5 0.75 0.3 0.0961538
552 5 0.7 0.35 0.0961538
854 5 0.65 0.25 0.115385
856 5 0.75 0.25 0.115385
873 5 0.6 0.3 0.115385
874 5 0.65 0.35 0.115385
875 5 0.7 0.3 0.115385
876 5 0.75 0.35 0.115385
514 5 0.85 0.25 0.0769231
516 5 0.8 0.25 0.0961538
518 5 0.95 0.25 0.0769231
520 5 0.9 0.25 0.0961538
553 5 0.8 0.3 0.0769231
554 5 0.85 0.35 0.0769231
555 5 0.85 0.3 0.0961538
556 5 0.8 0.35 0.0961538
557 5 0.9 0.3 0.0769231
558 5 0.95 0.35 0.0769231
559 5 0.95 0.3 0.0961538
560 5 0.9 0.35 0.0961538
858 5 0.85 0.25 0.115385
860 5 0.95 0.25 0.115385
877 5 0.8 0.3 0.115385
878 5 0.85 0.35 0.115385
879 5 0.9 0.3 0.115385
880 5 0.95 0.35 0.115385
561 5 0 0.4 0.0769231
562 5 0.05 0.45 0.0769231
563 5 0.05 0.4 0.0961538
564 5 0 0.45 0.0961538
565 5 0.1 0.4 0.0769231
566 5 0.15 0.45 0.0769231
567 5 0.15 0.4 0.0961538
568 5 0.1 0.45 0.0961538
569 5 0.2 0.4 0.0769231
572 5 0.2 0.45 0.0961538
601 5 0 0.5 0.0769231
602 5 0.05 0.55 0.0769231
603 5 0.05 0.5 0.0961538
604 5 0 0.55 0.0961538
605 5 0.1 0.5 0.0769231
606 5 0.15 0.55 0.0769231
607 5 0.15 0.5 0.0961538
608 5 0.1 0.55 0.0961538
609 5 0.2 0.5 0.0769231
612 5 0.2 0.55 0.0961538
881 5 0 0.4 0.115385
882 5 0.05 0.45 0.115385
883 5 0.1 0.4 0.115385
884 5 0.15 0.45 0.115385
885 5 0.2 0.4 0.115385
901 5 0 0.5 0.115385
902 5 0.05 0.55 0.115385
903 5 0.1 0.5 0.115385
904 5 0.15 0.55 0.115385
905 5 0.2 0.5 0.115385
570 5 0.25 0.45 0.0769231
571 5 0.25 0.4 0.0961538
573 5 0.3 0.4 0.0769231
574 5 0.35 0.45 0.0769231
575 5 0.35 0.4 0.0961538
576 5 0.3 0.45 0.0961538
610 5 0.25 0.55 0.0769231
611 5 0.25 0.5 0.0961538
613 5 0.3 0.5 0.0769231
614 5 0.35 0.55 0.0769231
615 5 0.35 0.5 0.0961538
616 5 0.3 0.55 0.0961538
886 5 0.25 0.45 0.115385
887 5 0.3 0.4 0.115385
888 5 0.35 0.45 0.115385
906 5 0.25 0.55 0.115385
907 5 0.3 0.5 0.115385
908 5 0.35 0.55 0.115385
577 5 0.4 0.4 0.0769231
578 5 0.45 0.45 0.0769231
579 5 0.45 0.4 0.0961538
580 5 0.4 0.45 0.0961538
581 5 0.5 0.4 0.0769231
582 5 0.55 0.45 0.0769231
583 5 0.55 0.4 0.0961538
584 5 0.5 0.45 0.0961538
617 5 0.4 0.5 0.0769231
618 5 0.45 0.55 0.0769231
619 5 0.45 0.5 0.0961538
620 5 0.4 0.55 0.0961538
621 5 0.5 0.5 0.0769231
622 5 0.55 0.55 0.0769231
623 5 0.55 0.5 0.0961538
624 5 0.5 0.55 0.0961538
889 5 0.4 0.4 0.115385
890 5 0.45 0.45 0.115385
891 5 0.5 0.4 0.115385
892 5 0.55 0.45 0.115385
909 5 0.4 0.5 0.115385
910 5 0.45 0.55 0.115385
911 5 0.5 0.5 0.115385
912 5 0.55 0.55 0.115385
585 5 0.6 0.4 0.0769231
586 5 0.65 0.45 0.0769231
587 5 0.65 0.4 0.0961538
588 5 0.6 0.45 0.0961538
589 5 0.7 0.4 0.0769231
590 5 0.75 0.45 0.0769231
591 5 0.75 0.4 0.0961538
592 5 0.7 0.45 0.0961538
625 5 0.6 0.5 0.0769231
626 5 0.65 0.55 0.0769231
627 5 0.65 0.5 0.0961538
628 5 0.6 0.55 0.0961538
629 5 0.7 0.5 0.0769231
630 5 0.75 0.55 0.0769231
631 5 0.75 0.5 0.0961538
632 5 0.7 0.55 0.0961538
893 5 0.6 0.4 0.115385
894 5 0.65 0.45 0.115385
895 5 0.7 0.4 0.115385
896 5 0.75 0.45 0.115385
913 5 0.6 0.5 0.115385
914 5 0.65 0.55 0.115385
915 5 0.7 0.5 0.115385
916 5 0.75 0.55 0.115385
593 5 0.8 0.4 0.0769231
594 5 0.85 0.45 0.0769231
595 5 0.85 0.4 0.0961538
596 5 0.8 0.45 0.0961538
597 5 0.9 0.4 0.0769231
598 5 0.95 0.45 0.0769231
599 5 0.95 0.4 0.0961538
600 5 0.9 0.45 0.0961538
633 5 0.8 0.5 0.0769231
634 5 0.85 0.55 0.0769231
635 5 0.85 0.5 0.0961538
636 5 0.8 0.55 0.0961538
637 5 0.9 0.5 0.0769231
638 5 0.95 0.55 0.0769231
639 5 0.95 0.5 0.0961538
640 5 0.9 0.55 0.0961538
897 5 0.8 0.4 0.115385
898 5 0.85 0.45 0.115385
899 5 0.9 0.4 0.115385
900 5 0.95 0.45 0.115385
917 5 0.8 0.5 0.115385
918 5 0.85 0.55 0.115385
919 5 0.9 0.5 0.115385
920 5 0.95 0.55 0.115385
641 5 0 0.6 0.0769231
642 5 0.05 0.65 0.0769231
643 5 0.05 0.6 0.0961538
644 5 0 0.65 0.0961538
645 5 0.1 0.6 0.0769231
646 5 0.15 0.65 0.0769231
647 5 0.15 0.6 0.0961538
648 5 0.1 0.65 0.0961538
649 5 0.2 0.6 0.0769231
652 5 0.2 0.65 0.0961538
681 5 0 0.7 0.0769231
682 5 0.05 0.75 0.0769231
683 5 0.05 0.7 0.0961538
684 5 0 0.75 0.0961538
685 5 0.1 0.7 0.0769231
686 5 0.15 0.75 0.0769231
687 5 0.15 0.7 0.0961538
688 5 0.1 0.75 0.0961538
689 5 0.2 0.7 0.0769231
692 5 0.2 0.75 0.0961538
921 5 0 0.6 0.115385
922 5 0.05 0.65 0.115385
923 5 0.1 0.6 0.115385
924 5 0.15 0.65 0.115385
925 5 0.2 0.6 0.115385
941 5 0 0.7 0.115385
942 5 0.05 0.75 0.115385
943 5 0.1 0.7 0.115385
944 5 0.15 0.75 0.115385
945 5 0.2 0.7 0.115385
650 5 0.25 0.65 0.0769231
651 5 0.25 0.6 0.0961538
653 5 0.3 0.6 0.0769231
654 5 0.35 0.65 0.0769231
655 5 0.35 0.6 0.0961538
656 5 0.3 0.65 0.0961538
690 5 0.25 0.75 0.0769231
691 5 0.25 0.7 0.0961538
693 5 0.3 0.7 0.0769231
694 5 0.35 0.75 0.0769231
695 5 0.35 0.7 0.0961538
696 5 0.3 0.75 0.0961538
926 5 0.25 0.65 0.115385
927 5 0.3 0.6 0.115385
928 5 0.35 0.65 0.115385
946 5 0.25 0.75 0.115385
947 5 0.3 0.7 0.115385
948 5 0.35 0.75 0.115385
657 5 0.4 0.6 0.0769231
658 5 0.45 0.65 0.0769231
659 5 0.45 0.6 0.0961538
660 5 0.4 0.65 0.0961538
661 5 0.5 0.6 0.0769231
662 5 0.55 0.65 0.0769231
663 5 0.55 0.6 0.0961538
664 5 0.5 0.65 0.0961538
697 5 0.4 0.7 0.0769231
698 5 0.45 0.75 0.0769231
699 5 0.45 0.7 0.0961538
700 5 0.4 0.75 0.0961538
701 5 0.5 0.7 0.0769231
702 5 0.55 0.75 0.0769231
703 5 0.55 0.7 0.0961538
704 5 0.5 0.75 0.0961538
929 5 0.4 0.6 0.115385
930 5 0.45 0.65 0.115385
931 5 0.5 0.6 0.115385
932 5 0.55 0.65 0.115385
949 5 0.4 0.7 0.115385
950 5 0.45 0.75 0.115385
951 5 0.5 0.7 0.115385
952 5 0.55 0.75 0.115385
665 5 0.6 0.6 0.0769231
666 5 0.65 0.65 0.0769231
667 5 0.65 0.6 0.0961538
668 5 0.6 0.65 0.0961538
669 5 0.7 0.6 0.0769231
670 5 0.75 0.65 0.0769231
671 5 0.75 0.6 0.0961538
672 5 0.7 0.65 0.0961538
705 5 0.6 0.7 0.0769231
706 5 0.65 0.75 0.0769231
707 5 0.65 0.7 0.0961538
708 5 0.6 0.75 0.0961538
709 5 0.7 0.7 0.0769231
710 5 0.75 0.75 0.0769231
711 5 0.75 0.7 0.0961538
712 5 0.7 0.75 0.0961538
933 5 0.6 0.6 0.115385
934 5 0.65 0.65 0.115385
935 5 0.7 0.6 0.115385
936 5 0.75 0.65 0.115385
953 5 0.6 0.7 0.115385
954 5 0.65 0.75 0.115385
955 5 0.7 0.7 0.115385
956 5 0.75 0.75 0.115385
673 5 0.8 0.6 0.0769231
674 5 0.85 0.65 0.0769231
675 5 0.85 0.6 0.0961538
676 5 0.8 0.65 0.0961538
677 5 0.9 0.6 0.0769231
678 5 0.95 0.65 0.0769231
679 5 0.95 0.6 0.0961538
680 5 0.9 0.65 0.0961538
713 5 0.8 0.7 0.0769231
714 5 0.85 0.75 0.0769231
715 5 0.85 0.7 0.0961538
716 5 0.8 0.75 0.0961538
717 5 0.9 0.7 0.0769231
718 5 0.95 0.75 0.0769231
719 5 0.95 0.7 0.0961538
720 5 0.9 0.75 0.0961538
937 5 0.8 0.6 0.115385
938 5 0.85 0.65 0.115385
939 5 0.9 0.6 0.115385
940 5 0.95 0.65 0.115385
957 5 0.8 0.7 0.115385
958 5 0.85 0.75 0.115385
959 5 0.9 0.7 0.115385
960 5 0.95 0.75 0.115385
721 5 0 0.8 0.0769231
722 5 0.05 0.85 0.0769231
723 5 0.05 0.8 0.0961538
724 5 0 0.85 0.0961538
725 5 0.1 0.8 0.0769231
726 5 0.15 0.85 0.0769231
727 5 0.15 0.8 0.0961538
728 5 0.1 0.85 0.0961538
729 5 0.2 0.8 0.0769231
732 5 0.2 0.85 0.0961538
761 5 0 0.9 0.0769231
762 5 0.05 0.95 0.0769231
763 5 0.05 0.9 0.0961538
764 5 0 0.95 0.0961538
765 5 0.1 0.9 0.0769231
766 5 0.15 0.95 0.0769231
767 5 0.15 0.9 0.0961538
768 5 0.1 0.95 0.0961538
769 5 0.2 0.9 0.0769231
772 5 0.2 0.95 0.0961538
961 5 0 0.8 0.115385
962 5 0.05 0.85 0.115385
963 5 0.1 0.8 0.115385
964 5 0.15 0.85 0.115385
965 5 0.2 0.8 0.115385
981 5 0 0.9 0.115385
982 5 0.05 0.95 0.115385
983 5 0.1 0.9 0.115385
984 5 0.15 0.95 0.115385
985 5 0.2 0.9 0.115385
730 5 0.25 0.85 0.0769231
731 5 0.25 0.8 0.0961538
733 5 0.3 0.8 0.0769231
734 5 0.35 0.85 0.0769231
735 5 0.35 0.8 0.0961538
736 5 0.3 0.85 0.0961538
770 5 0.25 0.95 0.0769231
771 5 0.25 0.9 0.0961538
773 5 0.3 0.9 0.0769231
774 5 0.35 0.95 0.0769231
775 5 0.35 0.9 0.0961538
776 5 0.3 0.95 0.0961538
966 5 0.25 0.85 0.115385
967 5 0.3 0.8 0.115385
968 5 0.35 0.85 0.115385
986 5 0.25 0.95 0.115385
987 5 0.3 0.9 0.115385
988 5 0.35 0.95 0.115385
737 5 0.4 0.8 0.0769231
738 5 0.45 0.85 0.0769231
739 5 0.45 0.8 0.0961538
740 5 0.4 0.85 0.0961538
741 5 0.5 0.8 0.0769231
742 5 0.55 0.85 0.0769231
743 5 0.55 0.8 0.0961538
744 5 0.5 0.85 0.0961538
777 5 0.4 0.9 0.0769231
778 5 0.45 0.95 0.0769231
779 5 0.45 0.9 0.0961538
780 5 0.4 0.95 0.0961538
781 5 0.5 0.9 0.0769231
782 5 0.55 0.95 0.0769231
783 5 0.55 0.9 0.0961538
784 5 0.5 0.95 0.0961538
969 5 0.4 0.8 0.115385
970 5 0.45 0.85 0.115385
971 5 0.5 0.8 0.115385
972 5 0.55 0.85 0.115385
989 5 0.4 0.9 0.115385
990 5 0.45 0.95 0.115385
991 5 0.5 0.9 0.115385
992 5 0.55 0.95 0.115385
745 5 0.6 0.8 0.0769231
746 5 0.65 0.85 0.0769231
747 5 0.65 0.8 0.0961538
748 5 0.6 0.85 0.0961538
749 5 0.7 0.8 0.0769231
750 5 0.75 0.85 0.0769231
751 5 0.75 0.8 0.0961538
752 5 0.7 0.85 0.0961538
785 5 0.6 0.9 0.0769231
786 5 0.65 0.95 0.0769231
787 5 0.65 0.9 0.0961538
788 5 0.6 0.95 0.0961538
789 5 0.7 0.9 0.0769231
790 5 0.75 0.95 0.0769231
791 5 0.75 0.9 0.0961538
792 5 0.7 0.95 0.0961538
973 5 0.6 0.8 0.115385
974 5 0.65 0.85 0.115385
975 5 0.7 0.8 0.115385
976 5 0.75 0.85 0.115385
993 5 0.6 0.9 0.115385
994 5 0.65 0.95 0.115385
995 5 0.7 0.9 0.115385
996 5 0.75 0.95 0.115385
753 5 0.8 0.8 0.0769231
754 5 0.85 0.85 0.0769231
755 5 0.85 0.8 0.0961538
756 5 0.8 0.85 0.0961538
757 5 0.9 0.8 0.0769231
758 5 0.95 0.85 0.0769231
759 5 0.95 0.8 0.0961538
760 5 0.9 0.85 0.0961538
793 5 0.8 0.9 0.0769231
794 5 0.85 0.95 0.0769231
795 5 0.85 0.9 0.0961538
796 5 0.8 0.95 0.0961538
797 5 0.9 0.9 0.0769231
798 5 0.95 0.95 0.0769231
799 5 0.95 0.9 0.0961538
800 5 0.9 0.95 0.0961538
977 5 0.8 0.8 0.115385
978 5 0.85 0.85 0.115385
979 5 0.9 0.8 0.115385
980 5 0.95 0.85 0.115385
997 5 0.8 0.9 0.115385
998 5 0.85 0.95 0.115385
999 5 0.9 0.9 0.115385
1000 5 0.95 0.95 0.115385
2004 1 0.106594 0.00548068 0.155574
2006 2 0.0882583 0.0127072 0.150516
2007 1 0.191384 0.00394259 0.153084
2031 1 0.00306463 0.0932172 0.156226
2032 2 0.0112497 0.115308 0.155255
2034 1 0.0913859 0.097863 0.155332
2035 2 0.108736 0.0828638 0.153046
2036 2 0.0998461 0.119265 0.153166
2037 1 0.193984 0.102017 0.156658
2063 2 0.0192604 0.198943 0.153273
2064 1 0.0914534 0.199511 0.155584
2065 2 0.0964569 0.193209 0.147013
2306 2 0.0850083 0.00914671 0.19543
2309 2 0.184197 0.00850691 0.195087
2331 1 0.00501523 0.0946413 0.194735
2334 1 0.0932792 0.0942861 0.193841
2335 2 0.11505 0.0882612 0.191091
2336 2 0.0916458 0.117432 0.191997
2338 2 0.193828 0.0914222 0.186075
2339 2 0.199154 0.102653 0.199671
2362 2 0.0172175 0.195061 0.189495
2364 1 0.0957878 0.191405 0.192862
2009 2 0.212467 0.0147344 0.153333
2010 1 0.306471 0.00671594 0.152849
2011 2 0.295095 0.0047644 0.160807
2013 1 0.391415 0.000129896 0.152127
2038 2 0.200561 0.0806702 0.15362
2039 2 0.205432 0.11732 0.151271
2040 1 0.294884 0.0920054 0.154577
2041 2 0.318053 0.0955583 0.155906
2042 2 0.287045 0.112407 0.151058
2045 2 0.382097 0.106835 0.152825
2067 1 0.204056 0.195687 0.150901
2068 2 0.210962 0.194537 0.159607
2072 2 0.316206 0.189539 0.154421
2075 2 0.386168 0.189689 0.157214
2308 2 0.218347 0.000726963 0.189963
2311 2 0.318147 0.00670643 0.192309
2312 2 0.281825 0.000306183 0.18976
2337 1 0.207045 0.105947 0.191173
2340 1 0.29689 0.0921024 0.190518
2341 2 0.318727 0.0965314 0.193616
2342 2 0.284371 0.111337 0.192783
2343 1 0.394474 0.0959647 0.189674
2345 2 0.391827 0.117231 0.193561
2369 2 0.204074 0.18209 0.194645
2372 2 0.299208 0.185508 0.197228
2373 1 0.395319 0.191533 0.192433
2015 2 0.411147 0.0117115 0.14976
2018 2 0.488146 0.0152901 0.153854
2021 2 0.593417 0.0178881 0.152572
2043 1 0.400378 0.0920312 0.151738
2044 2 0.417527 0.101104 0.156968
2046 1 0.493113 0.102364 0.1563
2047 2 0.506157 0.0825935 0.156069
2048 2 0.500704 0.115051 0.149179
2049 1 0.595269 0.0924974 0.155337
2051 2 0.587382 0.114639 0.154189
2076 1 0.498636 0.195169 0.150663
2078 2 0.508292 0.187105 0.158385
2081 2 0.586102 0.194657 0.149095
2315 2 0.400071 0.0157793 0.196613
2318 2 0.507233 0.0170706 0.190181
2321 2 0.586496 0.0130415 0.194107
2344 2 0.413678 0.0867899 0.193678
2346 1 0.503967 0.107706 0.193966
2347 2 0.505413 0.0850161 0.19653
2348 2 0.490635 0.107306 0.186434
2349 1 0.593906 0.0939123 0.194006
2351 2 0.597358 0.116887 0.195793
2374 2 0.418711 0.19514 0.192016
2377 2 0.495663 0.18217 0.18995
2379 1 0.593694 0.19269 0.192579
2023 2 0.695186 0.0187365 0.15395
2025 1 0.791638 0.00304021 0.15238
2050 2 0.617332 0.0928364 0.152018
2052 1 0.706638 0.103278 0.156245
2053 2 0.696928 0.0816818 0.155928
2054 2 0.696459 0.115052 0.149374
2055 1 0.792125 0.0979757 0.155866
2056 2 0.79507 0.0952749 0.146884
2079 1 0.608255 0.198046 0.152053
2082 1 0.693697 0.192653 0.153837
2083 2 0.717333 0.191488 0.153385
2086 2 0.795056 0.182753 0.156631
2323 2 0.716522 0.000498753 0.196175
2324 2 0.687331 0.00808173 0.187621
2350 2 0.608714 0.0891778 0.18713
2352 1 0.691414 0.104405 0.192017
2353 2 0.697828 0.0834828 0.188524
2354 2 0.710727 0.112128 0.196381
2355 1 0.794299 0.0923512 0.19294
2357 2 0.788307 0.115269 0.193118
2380 2 0.617329 0.191403 0.192174
2382 1 0.702619 0.193103 0.194718
2384 2 0.681769 0.195561 0.190494
2385 1 0.79415 0.197267 0.189534
2003 2 0.987523 0.0147819 0.153976
2027 2 0.805149 0.0141074 0.158537
2029 2 0.909379 0.00559939 0.147704
2030 2 0.884963 0.00119283 0.158506
2033 2 0.985697 0.0914501 0.150065
2057 2 0.812776 0.106742 0.158796
2058 1 0.895927 0.0913938 0.153175
2059 2 0.918957 0.0969279 0.152945
2060 2 0.8851 0.111647 0.155416
2061 1 0.996754 0.19268 0.151754
2088 1 0.894166 0.19234 0.154229
2089 2 0.917858 0.192604 0.15417
2303 2 0.986102 0.0124001 0.19432
2327 2 0.815153 0.0117492 0.191315
2330 2 0.890015 0.0158367 0.190431
2332 2 0.999128 0.0890986 0.186169
2333 2 0.995875 0.11624 0.196027
2356 2 0.817372 0.0923512 0.190868
2358 1 0.902412 0.0996181 0.188705
2359 2 0.910446 0.0859576 0.195479
2360 2 0.887151 0.114423 0.192726
2386 2 0.80898 0.183722 0.194368
2389 2 0.902292 0.194408 0.185239
2390 2 0.905543 0.199971 0.199437
2066 2 0.112058 0.207278 0.158948
2069 2 0.184998 0.20976 0.15102
2092 2 0.0122004 0.314966 0.153379
2094 1 0.0973362 0.292577 0.151687
2095 2 0.115653 0.293577 0.157454
2096 2 0.0870005 0.313819 0.152389
2097 1 0.193501 0.301958 0.156501
2098 2 0.199796 0.280711 0.153276
2123 2 0.00340576 0.393347 0.146983
2124 1 0.0905225 0.398032 0.153871
2125 2 0.108392 0.383157 0.152118
2128 2 0.195319 0.395247 0.160831
2129 2 0.196427 0.399839 0.146533
2361 1 0.00200917 0.203332 0.195717
2365 2 0.114785 0.200278 0.197106
2366 2 0.0894113 0.208286 0.186957
2367 1 0.196548 0.204486 0.195328
2368 2 0.199366 0.213441 0.186961
2391 1 0.00313437 0.305292 0.189433
2394 1 0.100373 0.290426 0.192838
2395 2 0.112585 0.303304 0.186801
2396 2 0.0870436 0.306234 0.197286
2398 2 0.195462 0.281548 0.190909
2399 2 0.199523 0.318788 0.190541
2422 2 0.015724 0.390349 0.190068
2424 1 0.0953992 0.39207 0.191112
2425 2 0.118083 0.394046 0.193632
2427 1 0.192409 0.394437 0.191437
2070 1 0.300458 0.206228 0.156691
2071 2 0.283337 0.204255 0.150437
2073 1 0.399193 0.208856 0.155316