ITEM: TIMESTEP
0
ITEM: NUMBER OF ATOMS
576
ITEM: BOX BOUNDS pp pp pp
-1.0394128515260981e-01 2.0689518996750415e+01
6.6626414481107332e-01 1.9919313566788176e+01
9.1276154637227513e-01 1.9672816165227022e+01
ITEM: ATOMS id type xs ys zs
44 2 0.187763 0.101532 0.214944
157 2 0.0924763 0.184555 0.193763
127 1 0.169999 0.178843 0.194496
504 2 0.195097 0.232867 0.253454
307 1 0.144622 0.0347987 0.235169
198 2 0.201433 0.197167 0.119351
137 1 0.0334099 0.198009 0.250479
42 2 0.27507 0.0490815 0.0901354
516 1 0.287167 0.131315 0.0900856
53 2 0.0408653 0.309974 0.0826062
36 2 0.307769 0.195556 0.289201
295 2 0.10173 0.0504464 0.307218
559 1 0.0753652 0.327052 0.309922
150 2 0.0950943 0.0243206 0.165022
28 1 0.215329 0.280744 0.0918748
71 2 0.0578909 0.246596 0.314966
85 2 0.280909 0.312263 0.127806
481 2 0.215651 0.273714 0.00594398
52 2 0.318911 0.17354 0.152812
275 2 0.320662 0.154135 0.0183774
125 2 0.159126 0.330422 0.118253
159 2 0.00729935 0.00013611 0.0570935
148 2 0.00509088 0.124955 0.279484
37 1 0.239736 0.213176 0.324954
96 2 0.347687 0.0755395 0.225879
469 1 0.351502 0.157919 0.228821
244 1 0.455462 0.283082 0.0564395
454 2 0.440597 0.126805 0.072929
154 1 0.464683 0.212294 0.301833
153 2 0.42333 0.179316 0.240783
419 2 0.512468 0.233993 0.0882847
380 1 0.513536 0.149231 0.0964953
414 2 0.533427 0.127696 0.176304
143 2 0.540774 0.195692 0.30647
226 1 0.581207 0.0710972 0.213167
447 2 0.556514 0.0415149 0.28883
140 2 0.650723 0.103502 0.227506
467 2 0.463281 0.295781 0.296623
440 2 0.623106 0.268145 0.233022
174 1 0.606879 0.234649 0.309805
236 1 0.398788 0.0133176 0.246927
520 2 0.564706 0.118318 0.0409434
458 2 0.402781 0.296264 0.115138
297 2 0.43847 0.0409066 0.314643
178 2 0.571876 0.00542704 0.160872
399 1 0.397541 0.153784 0.0039593
320 2 0.689445 0.107579 0.046008
290 1 0.689683 0.110916 0.300864
166 2 0.685982 0.292497 0.105873
576 2 0.982968 0.245309 0.208383
119 1 0.909994 0.268792 0.185447
338 2 0.893341 0.222109 0.117137
345 1 0.886169 0.136701 0.0919855
299 1 0.751802 0.0698296 0.0805017
139 2 0.809969 0.122927 0.0993238
187 2 0.914299 0.11748 0.0150905
402 2 0.76605 0.0969432 0.287112
264 1 0.800223 0.275536 0.287746
277 2 0.866763 0.252211 0.252719
169 2 0.750594 0.258166 0.22439
509 2 0.922711 0.0890581 0.149232
381 1 0.685616 0.294959 0.192494
208 1 0.695948 0.300498 0.0184147
412 2 0.882584 0.0493993 0.265122
262 1 0.916099 0.0196815 0.19588
106 2 0.728041 0.0191773 0.145561
92 1 0.820919 0.0446304 0.31617
332 2 0.782413 0.0166243 0.0172646
104 2 0.667891 0.18426 0.328692
155 1 0.0284046 0.333989 0.0028269
492 2 0.0865891 0.344092 0.226431
370 1 0.0873408 0.34684 0.138914
278 2 0.0665262 0.428191 0.124895
230 2 0.139216 0.532362 0.122213
253 1 0.209334 0.499506 0.114969
437 2 0.257221 0.56116 0.0958424
171 2 0.0197412 0.517606 0.290818
417 1 0.217963 0.471975 0.271837
86 2 0.234307 0.464866 0.189434
558 2 0.139862 0.48315 0.276341
436 2 0.202402 0.44412 0.0521547
556 2 0.0971969 0.610022 0.289173
479 1 0.0665474 0.512226 0.106419
112 2 0.249243 0.541168 0.302316
304 2 0.0440026 0.523087 0.0268922
461 1 0.0924188 0.532129 0.316171
314 2 0.0179646 0.553975 0.158461
296 2 0.239905 0.404991 0.318687
362 1 0.311574 0.583332 0.0405888
459 2 0.14808 0.65855 0.025147
181 1 0.243048 0.619469 0.327331
396 2 0.364782 0.350619 0.231733
93 1 0.349633 0.344261 0.147373
317 1 0.430435 0.366764 0.277751
446 2 0.595263 0.440758 0.0396428
312 2 0.482812 0.472071 0.104625
371 1 0.427317 0.565065 0.256542
12 1 0.517408 0.432381 0.0402977
80 2 0.597258 0.460877 0.199326
575 2 0.503858 0.538121 0.25073
471 1 0.538168 0.464617 0.252267
302 2 0.485765 0.407348 0.233562
199 1 0.40378 0.485724 0.119105
517 2 0.357946 0.420376 0.10806
247 2 0.391383 0.511956 0.20444
502 2 0.613779 0.571157 0.0770447
160 2 0.378724 0.544847 0.0639079
39 1 0.652105 0.499518 0.0558747
132 2 0.494074 0.352725 0.0350318
17 2 0.540373 0.638175 0.16205
269 2 0.423644 0.637071 0.215268
118 1 0.598524 0.645967 0.110299
542 1 0.673267 0.452561 0.199207
162 2 0.6895 0.374387 0.220002
356 2 0.690969 0.464008 0.118114
535 2 0.905884 0.350472 0.165395
480 1 0.973971 0.545978 0.22566
528 2 0.941244 0.618966 0.249907
134 2 0.715339 0.508915 0.244521
518 2 0.896426 0.463452 0.0783362
29 1 0.884376 0.432392 0.157147
103 2 0.926395 0.480605 0.209741
45 2 0.814507 0.456796 0.186394
336 1 0.792425 0.51556 0.239515
322 2 0.806707 0.5949 0.221571
258 2 0.800306 0.35718 0.307757
411 2 0.823245 0.491861 0.315713
135 2 0.206139 0.668623 0.270304
76 2 0.0301961 0.672675 0.0585577
58 2 0.312566 0.668779 0.0287555
14 2 0.123975 0.674888 0.167749
219 1 0.129281 0.67611 0.250378
138 1 0.0388887 0.978782 0.130173
191 1 0.273844 0.971651 0.0559555
397 1 0.103095 0.69372 0.0830639
256 2 0.0690425 0.904786 0.110016
406 1 0.20996 0.90257 0.191466
496 1 0.0883258 0.833581 0.1434
490 2 0.187399 0.967865 0.235039
232 2 0.151684 0.848723 0.189582
203 2 0.269096 0.858535 0.219041
1 1 0.0355932 0.794762 0.285237
311 2 0.0339637 0.814826 0.200707
51 2 0.0987475 0.775931 0.0830125
105 2 0.227393 0.928052 0.11006
179 2 0.0961271 0.741964 0.285155
133 2 0.305098 0.756734 0.136624
507 1 0.301423 0.749731 0.0529421
423 2 0.232363 0.771399 0.0214781
403 2 0.0402799 0.864101 0.330476
451 1 0.3277 0.806807 0.20005
231 2 0.446419 0.991426 0.181795
15 2 0.341027 0.932592 0.0396527
229 2 0.65191 0.681387 0.159386
16 2 0.346955 0.763974 0.268018
240 2 0.60506 0.697881 0.299738
95 2 0.353471 0.954416 0.280066
142 2 0.453083 0.681947 0.074675
532 1 0.474029 0.676679 0.161348
25 2 0.395744 0.84147 0.175315
392 2 0.486669 0.75369 0.189288
298 1 0.508441 0.962507 0.136607
415 1 0.46732 0.830883 0.206873
306 2 0.513543 0.882385 0.162903
319 2 0.50054 0.964645 0.0525693
503 2 0.477862 0.852891 0.290387
11 1 0.64605 0.872575 0.0225123
131 2 0.569756 0.695912 0.0439407
72 2 0.353694 0.798936 0.0154857
6 2 0.597043 0.861676 0.329361
444 1 0.49949 0.685602 0.00568012
9 2 0.569528 0.863821 0.0118214
472 2 0.661339 0.924109 0.0867219
435 1 0.661023 0.861329 0.282555
222 2 0.656962 0.79443 0.231355
200 1 0.659185 0.712817 0.237844
182 1 0.933402 0.676653 0.312688
91 1 0.80021 0.67573 0.252085
285 2 0.668824 0.929914 0.232954
545 2 0.855155 0.690319 0.310908
207 2 0.983876 0.978899 0.190824
465 2 0.682279 0.794853 0.036968
141 2 0.726774 0.690069 0.271063
243 2 0.815903 0.723553 0.18084
364 2 0.914396 0.708642 0.0869002
565 2 0.971611 0.753414 0.301255
327 1 0.705905 0.938842 0.157455
428 2 0.86727 0.958979 0.168623
524 1 0.840668 0.883567 0.185019
539 2 0.76673 0.885625 0.16068
352 1 0.85353 0.751615 0.111602
180 2 0.876519 0.829327 0.134454
158 2 0.844509 0.863372 0.2699
168 2 0.802923 0.756781 0.0462577
172 1 0.964348 0.693576 0.0215346
114 2 0.726014 0.853551 0.326876
268 2 0.792808 0.966482 0.314346
452 1 0.0313864 0.0685951 0.337584
547 2 0.207469 0.147884 0.364969
87 2 0.245454 0.278849 0.375974
147 1 0.241389 0.0845857 0.413492
89 2 0.183432 0.0672421 0.620087
26 2 0.0870691 0.0876672 0.536521
389 1 0.150142 0.0420999 0.545542
117 2 0.197547 0.0550825 0.477236
527 2 0.305492 0.126236 0.441351
474 2 0.0231676 0.0974569 0.419462
420 2 0.272272 0.0260789 0.361141
289 1 0.0169545 0.0996752 0.506681
60 2 0.0991384 0.22885 0.648745
365 2 0.22545 0.249259 0.648859
395 2 0.314287 0.109002 0.574177
550 1 0.15458 0.28807 0.657796
346 2 0.334405 0.304598 0.641983
21 1 0.339372 0.0972313 0.653817
514 1 0.506601 0.032851 0.352175
350 2 0.611069 0.288399 0.375817
457 2 0.398286 0.0483096 0.489169
209 1 0.356391 0.119605 0.502769
374 2 0.427374 0.201117 0.37737
313 2 0.400255 0.19006 0.512021
164 1 0.439689 0.236805 0.455274
564 2 0.414622 0.317215 0.455257
257 2 0.515735 0.240403 0.464562
90 2 0.51944 0.294332 0.620083
493 2 0.521718 0.0849751 0.414691
506 1 0.589573 0.0914766 0.577958
145 1 0.574453 0.291901 0.458055
368 2 0.532343 0.0355775 0.588437
357 2 0.63261 0.0868641 0.50468
521 2 0.556741 0.167311 0.592934
388 1 0.47753 0.0306666 0.650006
549 2 0.416471 0.085044 0.649746
248 2 0.642996 0.0859534 0.642329
523 1 0.575068 0.238937 0.624716
450 2 0.622759 0.27814 0.523133
498 1 0.666464 0.0342463 0.447852
220 2 0.667066 0.0603032 0.365552
429 2 0.983416 0.174605 0.529206
241 2 0.791493 0.241578 0.367648
546 2 0.936368 0.295206 0.57013
163 1 0.919276 0.216652 0.545842
287 2 0.740644 0.024391 0.468435
67 2 0.751196 0.280231 0.495867
69 2 0.772913 0.150898 0.468819
398 1 0.797185 0.229037 0.451869
466 2 0.841136 0.0619414 0.397064
173 1 0.801916 0.0749198 0.468984
18 2 0.844029 0.063001 0.537142
195 2 0.872748 0.22465 0.475836
394 2 0.877763 0.180794 0.609987
455 2 0.970999 0.0419811 0.545657
38 1 0.900946 0.0187679 0.570068
13 2 0.898084 0.019682 0.655741
360 2 0.812121 0.290005 0.642325
186 2 0.759335 0.161529 0.65895
538 2 0.742394 0.0235627 0.659161
462 1 0.690069 0.318836 0.535037
254 1 0.825394 0.207838 0.666303
540 2 0.311082 0.657148 0.337875
130 2 0.0154866 0.371098 0.334255
431 2 0.1352 0.337463 0.361389
391 2 0.143077 0.356014 0.608874
263 1 0.210486 0.354747 0.381563
349 2 0.216924 0.388423 0.456748
310 2 0.185022 0.60213 0.54356
425 1 0.238159 0.597139 0.483958
323 2 0.108811 0.523506 0.399111
333 2 0.259141 0.517549 0.480731
280 1 0.270399 0.435639 0.49812
409 2 0.0941766 0.464224 0.522624
27 2 0.269454 0.408714 0.580178
379 1 0.0942882 0.421102 0.595453
49 2 0.0252868 0.385486 0.600817
196 2 0.0364061 0.594455 0.488992
348 2 0.212104 0.62637 0.408896
434 1 0.0596072 0.517704 0.465589
201 1 0.319355 0.38417 0.6423
274 2 0.297575 0.645545 0.51018
294 2 0.107521 0.479296 0.657088
109 1 0.0186053 0.665103 0.448326
367 2 0.0973237 0.665193 0.626948
495 2 0.562963 0.459429 0.334029
238 2 0.335001 0.417339 0.458469
529 2 0.425183 0.579435 0.342836
63 2 0.408583 0.408034 0.347083
441 2 0.54817 0.370703 0.466496
422 2 0.358282 0.565072 0.585436
215 2 0.454506 0.452097 0.470673
347 2 0.569466 0.505071 0.461973
416 1 0.405872 0.400268 0.431856
227 1 0.527453 0.445272 0.494885
439 2 0.533332 0.445357 0.580263
353 1 0.607279 0.504602 0.385779
432 2 0.627252 0.582374 0.364459
566 2 0.419664 0.624004 0.478217
228 1 0.368041 0.635568 0.542476
569 1 0.446847 0.640585 0.398579
571 2 0.379869 0.436663 0.629248
334 1 0.387845 0.518502 0.647017
111 1 0.524262 0.492007 0.654204
5 2 0.523864 0.645435 0.392623
19 1 0.598393 0.660923 0.377169
252 2 0.460983 0.535667 0.657176
499 2 0.583498 0.547304 0.659245
223 2 0.999317 0.477016 0.430829
194 2 0.699316 0.339822 0.615362
108 2 0.67534 0.466262 0.388982
373 2 0.994642 0.353535 0.466768
351 2 0.684086 0.391218 0.498712
156 1 0.967738 0.364785 0.546367
183 1 0.831141 0.419295 0.356475
235 1 0.977461 0.403139 0.401025
511 2 0.918594 0.433443 0.538557
64 1 0.756726 0.537441 0.579907
572 2 0.770463 0.616079 0.588347
225 2 0.721634 0.520583 0.504836
101 1 0.719939 0.448994 0.455941
267 2 0.902962 0.399132 0.376797
62 2 0.927788 0.567609 0.588811
554 2 0.792503 0.426306 0.431568
210 1 0.892979 0.488948 0.594243
292 2 0.817341 0.491882 0.588458
122 2 0.70541 0.519433 0.645363
404 2 0.970246 0.647871 0.383229
488 1 0.936677 0.624242 0.651101
73 1 0.166273 0.670072 0.59025
408 1 0.310935 0.951851 0.352792
185 2 0.258784 0.893597 0.366046
510 2 0.161881 0.732701 0.53434
386 2 0.131707 0.959259 0.547309
116 2 0.186355 0.786205 0.40646
175 2 0.0828819 0.706845 0.428365
167 2 0.097566 0.833828 0.489467
165 1 0.131224 0.763581 0.461535
10 1 0.250621 0.828406 0.416116
344 1 0.0727356 0.907214 0.518495
94 2 0.309983 0.776373 0.402083
369 2 0.247753 0.859779 0.498607
100 1 0.300555 0.877864 0.559552
567 2 0.271103 0.870025 0.640921
375 2 0.0434628 0.943964 0.452017
321 2 0.0250335 0.890037 0.585942
212 2 0.217954 0.69547 0.646851
372 1 0.0046901 0.920146 0.381989
405 2 0.330393 0.949441 0.5441
551 1 0.349159 0.729877 0.344716
61 2 0.354335 0.816138 0.55117
486 2 0.509589 0.951821 0.377673
56 1 0.527845 0.872796 0.356982
204 2 0.418501 0.713515 0.372303
40 2 0.361994 0.939034 0.41506
326 1 0.389133 0.965968 0.49137
485 2 0.625788 0.701772 0.445917
176 2 0.45043 0.919547 0.508569
424 1 0.408258 0.779418 0.596631
202 2 0.392018 0.696512 0.596108
315 2 0.476524 0.791481 0.559877
522 2 0.514819 0.830289 0.43011
570 1 0.504561 0.855881 0.512496
563 2 0.568579 0.887 0.548003
531 2 0.636088 0.734053 0.586551
74 1 0.637951 0.901149 0.517058
184 2 0.635817 0.95782 0.451881
213 2 0.442994 0.952968 0.653122
544 2 0.663909 0.827281 0.486772
390 1 0.662148 0.746885 0.508753
249 2 0.995954 0.993708 0.339102
46 1 0.798184 0.886224 0.336612
214 2 0.858535 0.690681 0.521631
84 1 0.791193 0.692796 0.563669
475 2 0.687647 0.927809 0.574969
270 2 0.982882 0.719563 0.496671
144 2 0.734482 0.722428 0.511781
482 2 0.805879 0.736788 0.637058
426 1 0.922404 0.73762 0.54324
23 2 0.940253 0.884178 0.410564
418 2 0.822815 0.876712 0.41931
68 2 0.897574 0.816582 0.523628
120 1 0.884526 0.881742 0.472007
4 2 0.887043 0.946551 0.525731
413 2 0.937197 0.70517 0.62422
487 1 0.724729 0.944813 0.646373
242 2 0.793521 0.905786 0.652554
82 1 0.295787 0.24449 0.686536
342 2 0.150563 0.111156 0.892804
366 2 0.0479447 0.109391 0.698067
47 1 0.2177 0.0343663 0.693087
341 2 0.294747 0.0381125 0.692716
246 1 0.0553155 0.191421 0.710548
427 2 0.0862799 0.21623 0.787325
113 2 0.298912 0.283016 0.904881
136 1 0.122644 0.28623 0.814451
463 2 0.191104 0.076254 0.7617
335 1 0.225967 0.302812 0.926682
279 2 0.178449 0.270121 0.869773
537 2 0.077334 0.0353359 0.804859
525 1 0.149316 0.0548614 0.830588
325 1 0.0236198 0.0410337 0.742019
265 2 0.300308 0.262658 0.771618
107 2 0.152551 0.314058 0.738461
530 2 0.318836 0.150109 0.857464
2 1 0.330268 0.233477 0.844566
513 2 0.326805 0.168768 0.690112
473 2 0.000592365 0.268331 0.958333
151 2 0.333398 0.0090923 0.85402
460 1 0.627901 0.100731 0.997912
31 2 0.4223 0.23414 0.99614
483 2 0.631424 0.288204 0.970092
7 2 0.530761 0.243563 0.89
433 1 0.365767 0.0847681 0.861627
283 2 0.62366 0.243156 0.692235
328 2 0.42387 0.0895169 0.803771
456 2 0.409073 0.241805 0.836728
233 2 0.508727 0.178754 0.774883
237 1 0.483337 0.246798 0.817772
448 2 0.514861 0.042526 0.722504
250 2 0.404153 0.0974402 0.938335
489 1 0.651528 0.284288 0.759993
79 2 0.647954 0.251504 0.838658
273 1 0.498584 0.0969164 0.789002
54 2 0.539709 0.0742414 0.857092
574 2 0.616534 0.0285157 0.956185
515 1 0.606262 0.236262 0.909273
266 2 0.625992 0.158812 0.932433
259 2 0.493899 0.313917 0.769585
543 1 0.579394 0.00809327 0.885409
43 2 0.994105 0.0390767 0.932852
8 2 0.753319 0.244336 0.995311
57 1 0.711976 0.0977378 0.682407
59 2 0.981354 0.216698 0.718402
470 1 0.926946 0.263982 0.756287
430 2 0.939042 0.279466 0.838746
339 2 0.782106 0.313537 0.884489
110 1 0.88394 0.0265905 0.742164
393 2 0.706333 0.103007 0.769013
75 1 0.768863 0.100169 0.821844
177 2 0.87101 0.241412 0.944243
193 2 0.861161 0.21966 0.742756
500 2 0.828983 0.077586 0.771106
443 1 0.943551 0.236753 0.911503
98 2 0.759787 0.0426906 0.880321
77 2 0.949709 0.156782 0.890445
20 1 0.797067 0.241447 0.924213
115 2 0.783165 0.174725 0.870335
102 1 0.93064 0.087365 0.934909
468 2 0.724122 0.298115 0.73901
152 2 0.87247 0.0378345 0.917841
330 2 0.953187 0.0543143 0.768589
271 1 0.80272 0.00177013 0.936452
239 2 0.0730055 0.347719 0.840304
494 2 0.0976838 0.374654 0.984506
276 2 0.292344 0.412273 0.71929
286 2 0.136427 0.497003 0.952522
519 2 0.218432 0.521258 0.711468
146 1 0.141644 0.514412 0.725654
560 1 0.065469 0.530089 0.944261
303 2 0.212758 0.385091 0.927233
245 1 0.28521 0.493736 0.746721
340 2 0.0802751 0.609245 0.918736
552 1 0.276319 0.578288 0.884637
128 1 0.162119 0.421743 0.981373
88 2 0.123012 0.464662 0.793262
384 2 0.278928 0.512397 0.829336
526 2 0.0316313 0.478487 0.888096
318 1 0.0604024 0.429757 0.826086
476 2 0.119589 0.590298 0.741394
385 2 0.203041 0.614629 0.891545
281 1 0.0715424 0.648654 0.709045
78 2 0.320048 0.642648 0.866878
190 1 0.145497 0.648583 0.935594
205 2 0.293196 0.55265 0.964705
359 2 0.00421084 0.432334 0.767698
557 2 0.00276954 0.613419 0.700046
124 2 0.348137 0.532796 0.718048
421 2 0.617115 0.358974 0.767359
234 2 0.508639 0.620833 0.950749
533 1 0.54156 0.37706 0.776779
438 2 0.532778 0.402221 0.85695
309 1 0.514111 0.610976 0.864771
188 2 0.4937 0.531854 0.849034
329 2 0.524667 0.439624 0.72283
211 2 0.49223 0.470465 0.968432
251 2 0.6023 0.507621 0.898146
497 1 0.5321 0.47574 0.897099
65 1 0.641346 0.562087 0.846504
387 2 0.587216 0.620159 0.838853
129 1 0.653414 0.558766 0.692146
70 2 0.652566 0.526255 0.771049
449 2 0.663313 0.642426 0.687489
331 2 0.706024 0.526975 0.997887
361 1 0.756474 0.340109 0.676567
24 2 0.723213 0.37418 0.984388
568 1 0.905969 0.438223 0.994364
382 2 0.970907 0.390969 0.995546
81 2 0.922438 0.338606 0.721657
562 2 0.91915 0.466966 0.671637
355 2 0.933381 0.638553 0.968045
324 2 0.81251 0.587945 0.959772
50 2 0.704405 0.593093 0.881658
534 1 0.932082 0.417511 0.741014
512 2 0.761806 0.440422 0.860835
293 2 0.79413 0.537408 0.770051
97 2 0.909375 0.506735 0.941988
308 1 0.778271 0.386003 0.925245
401 2 0.876745 0.44004 0.797906
501 2 0.781095 0.410127 0.71797
300 1 0.800861 0.454458 0.786063
288 2 0.844526 0.396209 0.966873
48 1 0.884152 0.587389 0.929871
282 1 0.737266 0.593592 0.959135
192 1 0.831146 0.612047 0.775574
555 2 0.876713 0.612471 0.70345
337 2 0.875663 0.606373 0.847472
3 1 0.0268343 0.976291 0.976531
260 2 0.233594 0.975793 0.982416
573 2 0.180165 0.98304 0.861551
35 2 0.104383 0.970447 0.970236
377 2 0.0354326 0.842103 0.721564
217 1 0.17462 0.947788 0.937468
284 2 0.146717 0.731534 0.920622
22 2 0.262701 0.76492 0.889094
442 1 0.22482 0.738745 0.720426
291 1 0.201489 0.78395 0.942421
216 2 0.193071 0.956175 0.696506
491 2 0.179691 0.865252 0.938186
478 1 0.231862 0.884545 0.713119
121 2 0.282609 0.899436 0.775122
358 2 0.0752485 0.716084 0.759082
41 2 0.192025 0.813001 0.721878
505 1 0.0308763 0.782013 0.782488
161 2 0.0208618 0.972193 0.693422
197 2 0.0515044 0.81719 0.85857
410 2 0.286816 0.721975 0.765326
66 1 0.315968 0.722181 0.843305
316 1 0.0105663 0.828166 0.927889
464 2 0.470451 0.669683 0.83196
477 2 0.339741 0.890834 0.905051
484 2 0.408883 0.818589 0.674616
30 1 0.34046 0.93006 0.827334
301 2 0.443666 0.876724 0.97226
541 1 0.510315 0.914234 0.985577
453 1 0.368201 0.874482 0.984435
218 1 0.6426 0.723052 0.672064
126 2 0.476038 0.743367 0.945952
376 2 0.624944 0.978481 0.824072
561 1 0.443733 0.8883 0.708584
221 2 0.498216 0.80268 0.822797
34 2 0.40693 0.912163 0.782288
508 2 0.526265 0.955028 0.911866
83 1 0.457862 0.747564 0.863677
400 2 0.577488 0.743113 0.715847
383 2 0.382994 0.758251 0.849895
224 2 0.519317 0.869918 0.715858
407 1 0.555429 0.813516 0.763205
32 2 0.61507 0.84737 0.809238
354 1 0.65798 0.910991 0.792758
255 1 0.738508 0.749904 0.999696
363 1 0.999127 0.896957 0.668518
553 2 0.994619 0.904271 0.951431
33 2 0.71979 0.667015 0.995068
536 2 0.981305 0.767076 0.975648
548 2 0.921299 0.875774 0.670562
206 2 0.706799 0.76462 0.703859
149 2 0.683687 0.896606 0.953141
189 2 0.796256 0.685958 0.773856
378 2 0.672023 0.922526 0.707942
123 2 0.957282 0.75433 0.798982
261 2 0.82405 0.815579 0.74743
170 2 0.864958 0.948139 0.762818
272 1 0.782432 0.750736 0.717477
305 2 0.805858 0.920039 0.931574
99 2 0.753894 0.791305 0.924008
343 1 0.747582 0.87275 0.907584
445 2 0.7269 0.89177 0.826908
55 1 0.851526 0.885547 0.710226
ITEM: TIMESTEP
1000
ITEM: NUMBER OF ATOMS
576
ITEM: BOX BOUNDS pp pp pp
-1.0394128515260981e-01 2.0689518996750415e+01
6.6626414481107332e-01 1.9919313566788176e+01
9.1276154637227513e-01 1.9672816165227022e+01
ITEM: ATOMS id type xs ys zs
44 2 0.189022 0.101342 0.223278
157 2 0.093955 0.176444 0.19376
127 1 0.171522 0.176642 0.196591
504 2 0.193124 0.228197 0.257717
307 1 0.150656 0.030873 0.240023
198 2 0.201817 0.196478 0.119273
137 1 0.0301823 0.191238 0.246509
42 2 0.264928 0.0544451 0.0841646
516 1 0.280578 0.133889 0.0910871
53 2 0.0297884 0.317328 0.0804217
36 2 0.306263 0.182614 0.294424
295 2 0.104231 0.0409009 0.308652
559 1 0.0722857 0.31936 0.308199
150 2 0.101085 0.0201764 0.173275
28 1 0.208302 0.275464 0.0913445
71 2 0.0554078 0.236463 0.312608
85 2 0.273485 0.309692 0.120973
481 2 0.207519 0.266314 0.00563452
52 2 0.319666 0.170092 0.156527
275 2 0.319233 0.157516 0.022423
125 2 0.151609 0.323355 0.123189
159 2 0.0148357 0.00778003 0.0624556
148 2 0.00587492 0.119153 0.279231
37 1 0.23926 0.211165 0.325924
96 2 0.346145 0.0665623 0.221221
469 1 0.348709 0.147269 0.23101
244 1 0.456109 0.281634 0.0581139
454 2 0.437496 0.125715 0.0703066
154 1 0.46083 0.210349 0.299665
153 2 0.422205 0.167206 0.238606
419 2 0.508643 0.23387 0.0949066
380 1 0.506804 0.150539 0.0962138
414 2 0.53164 0.123926 0.17317
143 2 0.53638 0.189324 0.310005
226 1 0.579499 0.0704144 0.210341
447 2 0.55836 0.0435191 0.286058
140 2 0.651216 0.0953685 0.22584
467 2 0.458362 0.28725 0.275178
440 2 0.622286 0.257283 0.225932
174 1 0.605726 0.229626 0.306059
236 1 0.397995 0.00860055 0.246878
520 2 0.553498 0.124565 0.0321248
458 2 0.40049 0.300256 0.112816
297 2 0.439775 0.0381363 0.311972
178 2 0.571429 0.00515923 0.160178
399 1 0.394544 0.152796 0.00344974
320 2 0.67778 0.105438 0.0478793
290 1 0.68666 0.101074 0.300503
166 2 0.688868 0.299012 0.102195
576 2 0.978457 0.237482 0.20399
119 1 0.906234 0.262991 0.182305
338 2 0.88098 0.217468 0.117514
345 1 0.873216 0.136997 0.0969308
299 1 0.742129 0.0669433 0.0732343
139 2 0.797272 0.121894 0.0938692
187 2 0.913988 0.117285 0.025383
402 2 0.764739 0.0970228 0.291267
264 1 0.799139 0.276992 0.293286
277 2 0.863252 0.25626 0.254703
169 2 0.744641 0.261805 0.236126
509 2 0.906161 0.0920219 0.159178
381 1 0.683143 0.296094 0.191195
208 1 0.693085 0.301385 0.0175488
412 2 0.885755 0.0407706 0.28138
262 1 0.913234 0.0209795 0.201915
106 2 0.729915 0.0153973 0.13731
92 1 0.818881 0.0484123 0.326477
332 2 0.773971 0.0281192 0.00612327
104 2 0.662072 0.174062 0.32984
155 1 0.0243702 0.338455 -0.00458212
492 2 0.076236 0.32721 0.222653
370 1 0.0794963 0.345532 0.140539
278 2 0.0638815 0.429794 0.133964
230 2 0.143371 0.52882 0.11701
253 1 0.213938 0.494765 0.113283
437 2 0.262578 0.558823 0.0963991
171 2 0.0172069 0.512138 0.288975
417 1 0.221569 0.473223 0.271457
86 2 0.237555 0.463227 0.188847
558 2 0.141332 0.475499 0.270658
436 2 0.207881 0.43492 0.0542869
556 2 0.100242 0.599533 0.279262
479 1 0.0692025 0.510648 0.109827
112 2 0.237481 0.550949 0.301148
304 2 0.0502322 0.512293 0.0266833
461 1 0.090148 0.524074 0.310736
314 2 0.0196361 0.554963 0.155131
296 2 0.24274 0.408998 0.319316
362 1 0.31571 0.586092 0.042004
459 2 0.154222 0.658076 0.0357141
181 1 0.235825 0.629207 0.331807
396 2 0.35922 0.358409 0.225179
93 1 0.34138 0.345639 0.141249
317 1 0.424904 0.363414 0.271685
446 2 0.595017 0.445411 0.0404779
312 2 0.472635 0.473367 0.10136
371 1 0.426451 0.570519 0.255169
12 1 0.513606 0.432904 0.039759
80 2 0.59196 0.464401 0.192859
575 2 0.498999 0.540923 0.252722
471 1 0.53532 0.467971 0.249966
302 2 0.481255 0.407596 0.234421
199 1 0.399754 0.493458 0.121203
517 2 0.355491 0.425766 0.104333
247 2 0.38733 0.516814 0.207148
502 2 0.624868 0.577172 0.0696325
160 2 0.381056 0.556712 0.0709035
39 1 0.654125 0.501874 0.0478339
132 2 0.496345 0.35314 0.0403845
17 2 0.541511 0.635557 0.156499
269 2 0.425607 0.643319 0.212884
118 1 0.601145 0.648037 0.10318
542 1 0.667864 0.450806 0.191787
162 2 0.681427 0.374099 0.218315
356 2 0.692306 0.472558 0.115449
535 2 0.89716 0.347212 0.161424
480 1 0.975238 0.540777 0.224253
528 2 0.950058 0.613249 0.251078
134 2 0.710739 0.503197 0.244759
518 2 0.889731 0.465465 0.0717879
29 1 0.882962 0.431706 0.151972
103 2 0.928131 0.477612 0.20252
45 2 0.81456 0.448552 0.185518
336 1 0.788803 0.506761 0.245023
322 2 0.804949 0.586708 0.226569
258 2 0.797838 0.360572 0.315167
411 2 0.825634 0.49107 0.320225
135 2 0.195402 0.680466 0.280777
76 2 0.0312964 0.668386 0.0549202
58 2 0.30704 0.671418 0.0271658
14 2 0.118345 0.679449 0.167817
219 1 0.122641 0.676052 0.253335
138 1 0.0403183 0.977951 0.137133
191 1 0.267155 0.976651 0.0561912
397 1 0.1022 0.691178 0.0849008
256 2 0.0644498 0.904223 0.110064
406 1 0.209736 0.896798 0.188819
496 1 0.0841115 0.832704 0.143782
490 2 0.191597 0.961935 0.238661
232 2 0.150217 0.843802 0.186827
203 2 0.276675 0.861996 0.208847
1 1 0.0208628 0.790704 0.280239
311 2 0.0254543 0.812278 0.195905
51 2 0.0974782 0.776539 0.0812208
105 2 0.226517 0.924858 0.106792
179 2 0.0808849 0.73908 0.286007
133 2 0.30253 0.752608 0.138933
507 1 0.297422 0.751022 0.0533037
423 2 0.228995 0.784024 0.025326
403 2 0.0308398 0.858599 0.326863
451 1 0.329221 0.804715 0.20106
231 2 0.444384 0.990425 0.178979
15 2 0.338114 0.945905 0.0455925
229 2 0.654233 0.679132 0.160603
16 2 0.34635 0.766883 0.274406
240 2 0.610131 0.703652 0.302805
95 2 0.350695 0.950361 0.28313
142 2 0.457062 0.692052 0.0826406
532 1 0.476504 0.680538 0.165055
25 2 0.399443 0.834133 0.17915
392 2 0.494942 0.753037 0.201943
298 1 0.507565 0.95967 0.140065
415 1 0.470051 0.831905 0.216905
306 2 0.514757 0.886318 0.173101
319 2 0.501737 0.964378 0.0544755
503 2 0.474113 0.852876 0.298138
11 1 0.647653 0.862713 0.0275706
131 2 0.570168 0.695413 0.0420361
72 2 0.348116 0.809382 0.0241661
6 2 0.598 0.864025 0.327227
444 1 0.499303 0.692174 0.0106377
9 2 0.568724 0.856848 0.0110316
472 2 0.66063 0.915538 0.0923653
435 1 0.663571 0.859371 0.278149
222 2 0.667009 0.795902 0.224836
200 1 0.665341 0.711847 0.240247
182 1 0.933054 0.665071 0.317323
91 1 0.805638 0.664649 0.255492
285 2 0.669111 0.926659 0.230043
545 2 0.856347 0.670608 0.320942
207 2 0.98427 0.985611 0.196049
465 2 0.686868 0.791314 0.0436912
141 2 0.732406 0.687336 0.274554
243 2 0.823815 0.715906 0.190913
364 2 0.919636 0.711126 0.0953812
565 2 0.957841 0.743374 0.302362
327 1 0.706108 0.939358 0.155347
428 2 0.868558 0.965102 0.169055
524 1 0.841172 0.890685 0.19103
539 2 0.768315 0.88618 0.161593
352 1 0.859134 0.749579 0.124675
180 2 0.878368 0.827954 0.15059
158 2 0.843383 0.880136 0.277767
168 2 0.809888 0.755265 0.0576176
172 1 0.96433 0.69716 0.0209075
114 2 0.726535 0.85896 0.330409
268 2 0.790777 0.974807 0.341821
452 1 0.0314234 0.0626783 0.33668
547 2 0.206209 0.146436 0.370497
87 2 0.24537 0.276638 0.373443
147 1 0.243551 0.0873199 0.41528
89 2 0.182895 0.0614441 0.616816
26 2 0.086463 0.0868718 0.535019
389 1 0.150584 0.0398606 0.541444
117 2 0.200579 0.0496301 0.476003
527 2 0.302256 0.12988 0.446377
474 2 0.0277013 0.099235 0.417006
420 2 0.272999 0.0267063 0.364412
289 1 0.0146534 0.100538 0.504313
60 2 0.0947565 0.238829 0.650205
365 2 0.224586 0.246236 0.65549
395 2 0.320257 0.109796 0.575172
550 1 0.158984 0.289679 0.653856
346 2 0.335247 0.30704 0.644006
21 1 0.344343 0.09684 0.654174
514 1 0.507263 0.0322727 0.350863
350 2 0.605572 0.288014 0.373579
457 2 0.396779 0.0469396 0.48804
209 1 0.358837 0.119792 0.499966
374 2 0.427056 0.20725 0.37426
313 2 0.409262 0.180804 0.50611
164 1 0.44404 0.231962 0.453292
564 2 0.415213 0.312244 0.465444
257 2 0.518608 0.243635 0.462657
90 2 0.525352 0.302093 0.609319
493 2 0.519284 0.0803616 0.417246
506 1 0.585181 0.0895473 0.581866
145 1 0.579878 0.292015 0.454627
368 2 0.528191 0.0334456 0.591163
357 2 0.622854 0.0794134 0.508659
521 2 0.55949 0.168004 0.593997
388 1 0.476376 0.0239331 0.651727
549 2 0.417902 0.081852 0.651277
248 2 0.643429 0.0864572 0.641392
523 1 0.570853 0.241822 0.625469
450 2 0.634726 0.277293 0.515025
498 1 0.661042 0.0315351 0.4505
220 2 0.667243 0.0472665 0.363794
429 2 0.983261 0.174764 0.52746
241 2 0.791925 0.240306 0.369825
546 2 0.938992 0.295189 0.581216
163 1 0.917881 0.218918 0.552061
287 2 0.735502 0.0361849 0.475229
67 2 0.758668 0.295828 0.492709
69 2 0.765628 0.161301 0.484683
398 1 0.795043 0.232319 0.455372
466 2 0.834331 0.0825225 0.402488
173 1 0.794639 0.0842334 0.475258
18 2 0.841463 0.0695329 0.539014
195 2 0.869961 0.224612 0.482468
394 2 0.879047 0.180666 0.611729
455 2 0.966869 0.0395862 0.530989
38 1 0.898831 0.0203338 0.566153
13 2 0.89563 0.0288214 0.651675
360 2 0.811994 0.291019 0.643997
186 2 0.761071 0.16357 0.653754
538 2 0.748339 0.0282103 0.662596
462 1 0.697749 0.327885 0.53173
254 1 0.82616 0.210068 0.663308
540 2 0.3069 0.657416 0.338243
130 2 0.0120178 0.366525 0.333563
431 2 0.135101 0.338906 0.353867
391 2 0.153119 0.352086 0.600705
263 1 0.209139 0.35193 0.372057
349 2 0.216063 0.387502 0.449176
310 2 0.186283 0.60299 0.54815
425 1 0.237863 0.592975 0.484793
323 2 0.104407 0.517717 0.393451
333 2 0.25323 0.51308 0.478933
280 1 0.26787 0.429955 0.494992
409 2 0.0979251 0.45462 0.515505
27 2 0.270815 0.411316 0.578319
379 1 0.104472 0.417994 0.592581
49 2 0.0317448 0.384529 0.605768
196 2 0.0406893 0.585074 0.491573
348 2 0.209123 0.621372 0.410812
434 1 0.0611617 0.508718 0.462113
201 1 0.318207 0.388182 0.640982
274 2 0.30057 0.641978 0.506764
294 2 0.116247 0.485975 0.645782
109 1 0.0235762 0.657036 0.445951
367 2 0.103291 0.677353 0.626867
495 2 0.57237 0.465588 0.326526
238 2 0.336622 0.417341 0.458179
529 2 0.41655 0.586526 0.341267
63 2 0.411308 0.395727 0.352204
441 2 0.555721 0.370731 0.463651
422 2 0.360865 0.563036 0.580813
215 2 0.457245 0.443974 0.475418
347 2 0.570678 0.505929 0.456131
416 1 0.407109 0.393039 0.438074
227 1 0.533694 0.44289 0.493597
439 2 0.54049 0.455192 0.579319
353 1 0.611032 0.509722 0.382649
432 2 0.625306 0.588573 0.362162
566 2 0.425637 0.621397 0.477339
228 1 0.372939 0.635551 0.541853
569 1 0.444767 0.642503 0.397076
571 2 0.380884 0.437226 0.63074
334 1 0.39067 0.518445 0.645345
111 1 0.526541 0.500302 0.649316
5 2 0.518833 0.653382 0.382712
19 1 0.595515 0.664027 0.376006
252 2 0.46244 0.540893 0.652601
499 2 0.582823 0.555744 0.660031
223 2 0.998997 0.470701 0.426727
194 2 0.707432 0.344374 0.61306
108 2 0.680362 0.473293 0.391949
373 2 0.991269 0.35086 0.474884
351 2 0.684619 0.403633 0.50284
156 1 0.97209 0.365458 0.557948
183 1 0.831179 0.418149 0.364092
235 1 0.9777 0.393994 0.405602
511 2 0.926922 0.432623 0.549222
64 1 0.758386 0.534464 0.585276
572 2 0.780708 0.614563 0.594238
225 2 0.734715 0.525904 0.504021
101 1 0.723518 0.458081 0.456632
267 2 0.901971 0.391456 0.384843
62 2 0.932809 0.566733 0.588774
554 2 0.79119 0.428862 0.434526
210 1 0.898567 0.493273 0.597704