LAMMPS data file via write_data, version 29 Sep 2021, timestep = 402

1600 atoms
2 atom types

-30 30 xlo xhi
-30 30 ylo yhi
-0.5 0.5 zlo zhi

Masses

1 1
2 1

Pair Coeffs # lj/cut

1 1 1
2 0.5 0.3

Atoms # atomic

1506 2 -2.075887355988794 -29.43879210364017 0 0 0 0
1534 2 2.9148810230730504 -29.594645211284348 0 0 0 0
1554 2 -24.485543126285926 -28.440097432934138 0 0 0 0
1599 2 -24.40459510907173 -28.113224223163204 0 0 0 0
1543 2 16.020348372878672 -26.00489702821006 0 0 0 0
1557 2 29.968178891665527 -25.837580844821996 0 0 0 0
1582 2 29.04180027825201 -26.491382936758537 0 0 0 0
1577 2 -28.81646435522702 -25.267545715844378 0 0 0 0
1522 2 -6.298806246313562 -24.78821847567782 0 0 0 0
1553 2 -18.707182094972104 -23.38867412330734 0 0 0 0
1593 2 -19.972395025924126 -24.26399677966229 0 0 0 0
1523 2 -4.046219968611926 -24.228697973270567 0 0 0 0
1555 2 5.962787114879409 -23.829330879659 0 0 0 0
1565 2 5.772481704582103 -23.55152260915199 0 0 0 0
1590 2 -24.05205219547026 -22.37917428252519 0 0 0 0
1581 2 -3.1744654944923303 -21.764100637909664 0 0 0 0
1573 2 6.510896140401157 -21.816116540237882 0 0 0 0
1580 2 9.348412974374753 -21.437663768337234 0 0 0 0
1508 2 -25.551265244832464 -20.577044885368664 0 0 0 0
1526 2 -6.390270438564086 -20.532993974184564 0 0 0 0
1549 2 17.998443291414045 -20.144064519089337 0 0 0 0
1579 2 24.988365627354177 -20.538901058276604 0 0 0 0
1556 2 29.393647899568847 -20.959751946367206 0 0 0 0
1578 2 -21.11736033629503 -19.475172110588836 0 0 0 0
1562 2 -10.938792095307486 -19.490080410472924 0 0 0 0
1519 2 -4.250302158499715 -21.465800323675722 0 0 0 0
1530 2 7.523860354792678 -19.98942575068328 0 0 0 0
1596 2 17.98784745774201 -18.26731441515034 0 0 0 0
1502 2 -29.9670496769096 -16.203919819651134 0 0 0 0
1592 2 -20.84228317758175 -16.253365616432095 0 0 0 0
1571 2 -11.99284444930948 -19.21220147248149 0 0 0 0
1517 2 -5.756544516605706 -20.269921819047255 0 0 0 0
1515 2 8.787694833950788 -19.907431971556292 0 0 0 0
1516 2 14.462720628896347 -17.202034227325992 0 0 0 0
1541 2 26.46296328255765 -16.58202191933705 0 0 0 0
1566 2 -26.83257814349261 -15.14085768030065 0 0 0 0
584 1 -1.7129802312557034 -21.393868558309865 0 0 0 0
1132 1 -0.7433194066764088 -21.970089982792917 0 0 0 0
1034 1 0.25208949409056647 -21.438996334164333 0 0 0 0
1169 1 1.261768033153674 -20.887166264233823 0 0 0 0
1333 1 3.3356473058491996 -20.771504549107885 0 0 0 0
1533 2 18.616157834132736 -15.520127202395388 0 0 0 0
1545 2 25.124397745668144 -14.641176689727896 0 0 0 0
205 1 -8.161977974505442 -20.426753696607868 0 0 0 0
410 1 -10.455922883584455 -19.92566659689535 0 0 0 0
449 1 -10.054830072747151 -20.97979239759689 0 0 0 0
517 1 -7.834042883828373 -21.480639770988653 0 0 0 0
632 1 -8.941650015150051 -21.226175026994056 0 0 0 0
969 1 -9.299221939110375 -20.1736209725427 0 0 0 0
651 1 -6.641841549059943 -18.822865157328735 0 0 0 0
1383 1 -7.386928409815771 -19.64033409655481 0 0 0 0
13 1 -2.7032775933935045 -19.725450186291535 0 0 0 0
63 1 -6.2671500443270185 -19.88406367104701 0 0 0 0
88 1 -5.16369834702194 -20.0525433682613 0 0 0 0
258 1 -5.532792426911116 -19.02947291729219 0 0 0 0
351 1 -5.869534863070944 -20.897120250928435 0 0 0 0
838 1 -7.008283266087209 -20.699867000255896 0 0 0 0
894 1 -3.7385624883136255 -20.240576328518344 0 0 0 0
1278 1 -4.688043372389363 -21.029121348818695 0 0 0 0
42 1 -0.7227241213723015 -20.86133106696152 0 0 0 0
593 1 -2.627478017080058 -18.635305450098315 0 0 0 0
861 1 -3.641692576290812 -21.36714921987367 0 0 0 0
928 1 -1.7036563687697805 -20.285668115267335 0 0 0 0
974 1 -2.687057759582673 -20.82129893783518 0 0 0 0
381 1 -1.6827682792926457 -19.187573079025448 0 0 0 0
1021 1 0.27558760085507067 -20.33547487464789 0 0 0 0
778 1 1.281022386975808 -19.782506157845887 0 0 0 0
162 1 4.247298767778519 -19.07101859585303 0 0 0 0
612 1 2.2707811372790787 -19.19216244784018 0 0 0 0
860 1 3.2510022016494022 -18.573063609771527 0 0 0 0
970 1 3.280957250052488 -19.67331168548363 0 0 0 0
975 1 2.2921115334187507 -20.304293480451786 0 0 0 0
1376 1 4.296306779715679 -20.17332258384571 0 0 0 0
81 1 7.172161264625079 -19.461166086459276 0 0 0 0
373 1 6.333742492663088 -21.21893728247714 0 0 0 0
429 1 5.197268452926985 -18.469549521581502 0 0 0 0
526 1 4.344157560252472 -21.27764341364614 0 0 0 0
1065 1 6.24281770929067 -20.090625021942238 0 0 0 0
1122 1 5.2450190563024055 -19.585178696682828 0 0 0 0
1255 1 6.182191926231522 -18.971981144956946 0 0 0 0
1350 1 5.310196140817262 -20.70544770731868 0 0 0 0
1214 1 7.251393361591244 -20.56348478065142 0 0 0 0
653 1 9.1120776683924 -20.461011879087238 0 0 0 0
1224 1 12.028699236524906 -18.592955616167792 0 0 0 0
1475 1 10.049346505269016 -18.720431792235576 0 0 0 0
621 1 -14.219661686192751 -17.95451708826983 0 0 0 0
288 1 -13.054479587407997 -18.32615346133826 0 0 0 0
786 1 -11.88581519338813 -18.593392108643947 0 0 0 0
947 1 -11.547420733128535 -19.661099791669027 0 0 0 0
1125 1 -12.623192603236324 -19.382668430777656 0 0 0 0
1195 1 -11.124941476023833 -17.812129032060515 0 0 0 0
136 1 -8.896118927301911 -18.344365909636572 0 0 0 0
262 1 -8.527262771185004 -19.385142166570795 0 0 0 0
330 1 -10.787045952097284 -18.874782752187233 0 0 0 0
491 1 -10.016918794801246 -18.084521800819584 0 0 0 0
1260 1 -9.671102106631865 -19.135926339820223 0 0 0 0
1362 1 -9.248531072814753 -17.29605263405915 0 0 0 0
274 1 -7.015712240603469 -17.775080618223736 0 0 0 0
379 1 -7.764252278487976 -18.58995945307992 0 0 0 0
227 1 -4.780894773472297 -18.21895718838905 0 0 0 0
297 1 -4.380250301472921 -19.277667341638065 0 0 0 0
380 1 -5.900435493803169 -17.99140561287031 0 0 0 0
693 1 -6.269315974212767 -16.95438304484818 0 0 0 0
474 1 -3.682942531198729 -18.41308773642683 0 0 0 0
1270 1 -2.785522642362807 -17.543305236057414 0 0 0 0
1448 1 -1.704594142370043 -18.054323681875754 0 0 0 0
607 1 -0.7082890732854326 -19.76429895522241 0 0 0 0
1036 1 -1.7706007412898581 -16.938942488417194 0 0 0 0
1191 1 -0.7096150766784011 -18.667709231926246 0 0 0 0
1240 1 -0.7139890402939136 -17.57934561466715 0 0 0 0
144 1 1.2740267838790762 -18.681914984715668 0 0 0 0
333 1 0.28061630257301917 -18.15554656797175 0 0 0 0
572 1 0.2845382009460846 -19.242059534754457 0 0 0 0
1220 1 2.257000002294921 -18.086993582434207 0 0 0 0
1490 1 1.2700682892900685 -17.585560683631567 0 0 0 0
26 1 3.229221855284357 -17.470718765904305 0 0 0 0
1185 1 2.246696371218596 -16.984094484378986 0 0 0 0
1380 1 4.213550803737193 -17.965288976935394 0 0 0 0
55 1 7.121345456167926 -18.348602732098026 0 0 0 0
1181 1 8.155686866021467 -19.93474991729286 0 0 0 0
188 1 11.013017198537172 -18.111322711739465 0 0 0 0
476 1 9.098750468943358 -19.347458559205567 0 0 0 0
836 1 8.112401991168547 -18.831829037600468 0 0 0 0
1206 1 9.056069009785755 -18.21761160224576 0 0 0 0
1225 1 10.015308145885308 -17.60117381326984 0 0 0 0
148 1 11.953887326599368 -17.478001128444284 0 0 0 0
316 1 12.956072174679685 -17.962083413677984 0 0 0 0
540 1 12.877550110310137 -16.841430601799928 0 0 0 0
930 1 -15.536489605211287 -16.45084573267197 0 0 0 0
430 1 -15.306647214139332 -17.57556766905349 0 0 0 0
733 1 -13.3888159011187 -17.23181026585105 0 0 0 0
826 1 -13.688383571380326 -16.123110593907047 0 0 0 0
1469 1 -14.485342633641734 -16.847556190354297 0 0 0 0
157 1 -9.597249300460774 -16.247893538640902 0 0 0 0
497 1 -12.263812492402842 -17.54903438001803 0 0 0 0
595 1 -12.87105979370954 -15.421664176746651 0 0 0 0
873 1 -11.483366659467304 -16.767235837728045 0 0 0 0
1467 1 -12.587155995897527 -16.48712691785194 0 0 0 0
1496 1 -10.360137081096987 -17.03029065198469 0 0 0 0
102 1 -8.49003476291843 -16.4980885787503 0 0 0 0
512 1 -8.133449956251516 -17.54431701953449 0 0 0 0
803 1 -7.381440206411242 -16.732139012778934 0 0 0 0
1074 1 -7.741947690455807 -15.690454578456134 0 0 0 0
953 1 -6.63650381718931 -15.91600120235632 0 0 0 0
128 1 -5.5269292050970735 -16.137162373609172 0 0 0 0
202 1 -5.147810097169045 -17.17619763805958 0 0 0 0
738 1 -4.802909674620741 -15.30701084371533 0 0 0 0
7 1 -1.916449422727445 -14.821451399365008 0 0 0 0
319 1 -2.611973210885429 -15.69528899874302 0 0 0 0
478 1 -4.415642893815227 -16.34653172855507 0 0 0 0
589 1 -3.297692186882681 -16.552000840682968 0 0 0 0
938 1 -4.0245418549708285 -17.37978072313943 0 0 0 0
1449 1 -1.5341512876244017 -15.842918185398368 0 0 0 0
241 1 0.28458252394252237 -17.079535705358264 0 0 0 0
952 1 -0.685394022958885 -16.50079853221773 0 0 0 0
1316 1 -0.8021470445677106 -15.003550543617132 0 0 0 0
175 1 1.2756182877557403 -15.39384319063539 0 0 0 0
1281 1 0.2895559738269438 -16.012127082931116 0 0 0 0
224 1 3.166557410251563 -15.255400772567931 0 0 0 0
690 1 3.209001251370668 -16.36627070172517 0 0 0 0
791 1 2.1761451608105746 -14.764163642845817 0 0 0 0
841 1 1.269804140352804 -16.490637649425253 0 0 0 0
1178 1 4.148619561860722 -15.748747298158408 0 0 0 0
1331 1 2.2374448924235018 -15.880742905565938 0 0 0 0
186 1 5.094782356972586 -15.138799150611174 0 0 0 0
308 1 5.126021046778542 -16.244247063552404 0 0 0 0
775 1 5.1600291396647355 -17.355677097184422 0 0 0 0
921 1 4.1841214941944695 -16.85802932635631 0 0 0 0
1201 1 6.137855086593032 -17.854542037231663 0 0 0 0
727 1 7.052411264142213 -16.125752226393836 0 0 0 0
1179 1 7.081291545132814 -17.235731646922478 0 0 0 0
1243 1 8.0672329939539 -17.722705266277696 0 0 0 0
1247 1 6.102221961177768 -16.740493047360555 0 0 0 0
1340 1 8.036086664846126 -16.616154370144653 0 0 0 0
40 1 11.891694752002804 -16.359747833935597 0 0 0 0
660 1 10.908574829157875 -15.870169585645494 0 0 0 0
1002 1 10.962453021412795 -16.990133190017893 0 0 0 0
1261 1 9.974825401402171 -16.489219111240985 0 0 0 0
184 1 13.867491476435905 -17.32303419600978 0 0 0 0
304 1 12.817578116008253 -15.726693207175934 0 0 0 0
804 1 13.805797267942596 -16.209307713818095 0 0 0 0
1277 1 14.731252702424296 -15.580188591936377 0 0 0 0
506 1 15.726562398028303 -16.067385434724226 0 0 0 0
1067 1 16.656114756752203 -15.443015794497416 0 0 0 0
1107 1 14.80166096481373 -16.694353317069265 0 0 0 0
72 1 -16.886124411188618 -13.243833321340965 0 0 0 0
1062 1 -17.87347459658652 -13.737401936815507 0 0 0 0
1150 1 -14.865566829228401 -14.469481806049936 0 0 0 0
1219 1 -16.889886149086866 -14.368793015550509 0 0 0 0
1345 1 -15.812425183626857 -15.044238826648293 0 0 0 0
75 1 -14.761978505010832 -15.656457388286112 0 0 0 0
495 1 -13.879235599201355 -14.997686862773532 0 0 0 0
1138 1 -13.88659580783048 -13.89108696767376 0 0 0 0
404 1 -11.810614875561791 -15.707236036816411 0 0 0 0
678 1 -11.065207924234866 -14.927721091576391 0 0 0 0
845 1 -10.714331729873239 -15.984341087701747 0 0 0 0
858 1 -12.182169701836827 -14.601829244530041 0 0 0 0
940 1 -11.404902434904681 -13.871746324162622 0 0 0 0
1103 1 -10.297354755826582 -14.167584584121142 0 0 0 0
1314 1 -9.952520334916318 -15.206977941901023 0 0 0 0
90 1 -9.548073010835951 -13.381649403199965 0 0 0 0
548 1 -8.844604441433285 -15.45469981928028 0 0 0 0
881 1 -8.458761684591087 -13.616730222014551 0 0 0 0
1026 1 -8.101183477643431 -14.651809281668058 0 0 0 0
1413 1 -9.199741400924324 -14.41767743080324 0 0 0 0
117 1 -7.002544843333823 -14.877948958827679 0 0 0 0
1118 1 -7.366841320734195 -13.841705220061579 0 0 0 0
1450 1 -7.006327855507666 -11.987376536350395 0 0 0 0
95 1 -4.093870405444346 -14.466624346396094 0 0 0 0
126 1 -5.558894282187045 -13.228132959691871 0 0 0 0
343 1 -5.902359116031289 -15.09702170828323 0 0 0 0
513 1 -3.3980928965837625 -13.615205950324826 0 0 0 0
522 1 -3.704643703732646 -15.508004643256506 0 0 0 0
609 1 -5.183373338330855 -14.266579042071278 0 0 0 0
1079 1 -4.476889074740112 -13.426244577705546 0 0 0 0
1431 1 -6.274487117069878 -14.058451896625982 0 0 0 0
74 1 -3.0060240175895565 -14.654821492414857 0 0 0 0
99 1 -2.322116325557107 -13.7905674691603 0 0 0 0
356 1 -1.2483797332082487 -13.957375697247834 0 0 0 0
106 1 -1.629236931689486 -12.927117328718817 0 0 0 0
973 1 -0.18415280472836887 -14.057151296538228 0 0 0 0
820 1 0.30674787147428373 -14.965184288614086 0 0 0 0
949 1 3.1229992746708137 -14.151972330824268 0 0 0 0
1315 1 1.1526749984479 -14.255339893468939 0 0 0 0
185 1 5.066939067663689 -14.035874433234467 0 0 0 0
1090 1 4.112924423754203 -14.644719149509385 0 0 0 0
1336 1 6.073440550936939 -15.631832850873241 0 0 0 0
30 1 6.040938896639409 -14.526744611032624 0 0 0 0
445 1 9.024703770784637 -17.10534989961766 0 0 0 0
687 1 8.000564654074955 -15.508681262120165 0 0 0 0
810 1 6.971848143481547 -13.90902246394252 0 0 0 0
906 1 7.0188641967347865 -15.018215290802445 0 0 0 0
1216 1 7.95227868246055 -14.39926519913812 0 0 0 0
22 1 9.923430501287026 -15.376811796798627 0 0 0 0
194 1 8.98704435098673 -15.996530307208324 0 0 0 0
652 1 9.863773639567167 -14.265177474195097 0 0 0 0
691 1 10.719117009620758 -12.52542755028129 0 0 0 0
1011 1 10.847859181801168 -14.754833935571414 0 0 0 0
1203 1 8.936380154523604 -14.88714607017136 0 0 0 0
94 1 10.78355484839672 -13.641686467593905 0 0 0 0
156 1 11.76564558482051 -14.128939044090423 0 0 0 0
384 1 11.832404060531653 -15.242504577322745 0 0 0 0
1373 1 12.683494197100346 -13.50252989727785 0 0 0 0
208 1 13.603034017412263 -12.878741463405369 0 0 0 0
882 1 12.751578775189746 -14.613157868118169 0 0 0 0
1015 1 13.672805150155924 -13.987459125029325 0 0 0 0
1482 1 13.740679863780288 -15.096521824737057 0 0 0 0
725 1 14.595546049290276 -13.363514753605235 0 0 0 0
781 1 15.59284412922654 -13.845642617244234 0 0 0 0
824 1 15.659015786619362 -14.952232413956462 0 0 0 0
1226 1 16.513249191693216 -13.218673790565493 0 0 0 0
1266 1 17.522652190888696 -13.698100471009646 0 0 0 0
1290 1 14.665218024370175 -14.470254646152773 0 0 0 0
1329 1 16.59606804435829 -14.328660777747526 0 0 0 0
143 1 18.445050287267318 -13.062719174297618 0 0 0 0
979 1 17.426447879599586 -12.589436852461455 0 0 0 0
1569 2 -26.596503880152714 -7.44071372665498 0 0 0 0
1583 2 -20.265868347957795 -8.970299801309789 0 0 0 0
458 1 -18.828036484655357 -13.111022770614221 0 0 0 0
464 1 -17.828007137047486 -11.4773058395146 0 0 0 0
658 1 -17.849213892904164 -12.60602082328379 0 0 0 0
950 1 -16.871753410946994 -12.113296954508451 0 0 0 0
1063 1 -18.81615937943486 -11.974527870878042 0 0 0 0
110 1 -14.93765253838661 -11.097681561288287 0 0 0 0
336 1 -14.953598276564346 -12.225304189406735 0 0 0 0
371 1 -15.890229880331225 -13.890479839911029 0 0 0 0
747 1 -15.91099658767726 -12.749680408968718 0 0 0 0
789 1 -16.846983416647074 -10.981775191634409 0 0 0 0
962 1 -14.92680420797129 -13.350077967560809 0 0 0 0
83 1 -13.996235609479088 -11.70796868822466 0 0 0 0
443 1 -12.964724293138444 -12.38136982035351 0 0 0 0
519 1 -13.97437212477409 -12.801833364861405 0 0 0 0
891 1 -12.774531863689589 -13.527733605682005 0 0 0 0
171 1 -12.06991442383987 -11.761590992926573 0 0 0 0
283 1 -13.045221309046687 -11.218767967481028 0 0 0 0
436 1 -11.001301668719533 -12.128699432355555 0 0 0 0
639 1 -11.855632340181257 -12.855865968713104 0 0 0 0
706 1 -10.63696023695938 -13.13407963602656 0 0 0 0
719 1 -8.811083209498742 -12.582139770108197 0 0 0 0
730 1 -7.727394698707194 -12.807207960688224 0 0 0 0
999 1 -9.894768505629079 -12.348595867081425 0 0 0 0
1318 1 -9.152929007618079 -11.547393960800107 0 0 0 0
49 1 -6.295402031104211 -11.1598136322254 0 0 0 0
434 1 -6.642950791288916 -13.022087247606155 0 0 0 0
562 1 -5.928640232936756 -12.192882219785467 0 0 0 0
198 1 -3.7760491643967913 -12.578455001033578 0 0 0 0
233 1 -5.221783288525563 -11.356467211084826 0 0 0 0
243 1 -4.148860246766869 -11.545431298623525 0 0 0 0
1269 1 -4.851380537517927 -12.389699104524011 0 0 0 0
247 1 -0.9363041098823934 -12.060139046807912 0 0 0 0
694 1 -3.4491750114042663 -10.696922129661331 0 0 0 0
1037 1 -3.0773521971086124 -11.726182498444675 0 0 0 0
1228 1 -2.7026925960900416 -12.757799284012833 0 0 0 0
215 1 -0.5539709079593554 -13.069503928237962 0 0 0 0
234 1 0.5695314204639303 -13.290371265875507 0 0 0 0
560 1 1.1892347582626683 -12.408904698697103 0 0 0 0
793 1 0.13731263639064814 -12.241366193216521 0 0 0 0
92 1 1.9385862854159492 -11.569045704820327 0 0 0 0
249 1 3.040356702171729 -11.896248950670028 0 0 0 0
391 1 3.1535386396451464 -13.06035786567012 0 0 0 0
987 1 4.101908124877598 -13.545622402235988 0 0 0 0
1229 1 2.215487128762252 -12.602313383108488 0 0 0 0
1323 1 2.112244270689458 -13.672627838905456 0 0 0 0
5 1 5.012359046960306 -12.918887257624768 0 0 0 0
566 1 4.032638901553055 -12.409403519974793 0 0 0 0
782 1 5.014272033736643 -10.724965536428783 0 0 0 0
913 1 4.965888992520923 -11.810891947147557 0 0 0 0
1013 1 3.969042337890914 -11.296608161719895 0 0 0 0
45 1 5.946707820714297 -12.309042217827253 0 0 0 0
214 1 6.89754749052978 -11.694159475419358 0 0 0 0
282 1 6.924536698760756 -12.800584783596756 0 0 0 0
462 1 7.90225170555238 -13.289624274618113 0 0 0 0
577 1 8.82944607394849 -12.665309730872455 0 0 0 0
578 1 8.881472495964772 -13.777204701362681 0 0 0 0
1007 1 7.80145581436106 -11.054351182972423 0 0 0 0
1027 1 5.94709533643188 -11.209740374789131 0 0 0 0
1158 1 7.859822976353459 -12.179097264911869 0 0 0 0
1299 1 8.770611741204936 -11.54419247996489 0 0 0 0
1436 1 5.9919060656479 -13.416749476174633 0 0 0 0
127 1 9.67851466751827 -10.911395161381398 0 0 0 0
158 1 9.804414930152914 -13.152843003501472 0 0 0 0
209 1 9.743260560761628 -12.034202319310543 0 0 0 0
664 1 11.633715454299244 -11.898724786434215 0 0 0 0
828 1 10.655155082172161 -11.404986471298615 0 0 0 0
56 1 11.568696146282539 -10.779564758646384 0 0 0 0
601 1 11.698947401394324 -13.015361771466882 0 0 0 0
809 1 12.482210208742716 -10.15514599958595 0 0 0 0
1363 1 12.549338886985609 -11.27422295193494 0 0 0 0
116 1 15.362848213520143 -10.511619599497026 0 0 0 0
251 1 12.615759572750735 -12.390475098851983 0 0 0 0
569 1 14.520922095009274 -12.253791127041502 0 0 0 0
900 1 13.463930494553763 -10.649063256994179 0 0 0 0
1174 1 13.532899234151651 -11.766092253075334 0 0 0 0
141 1 15.43582336838332 -11.625529320603917 0 0 0 0
181 1 16.42887637092333 -12.108094511792267 0 0 0 0
385 1 16.351218820131123 -10.99660771263407 0 0 0 0
704 1 15.514421678828773 -12.737217441282366 0 0 0 0
43 1 18.336103216429937 -11.962360959884887 0 0 0 0
89 1 18.270369528401666 -10.859109881446376 0 0 0 0
109 1 17.27391540960804 -10.372384976166915 0 0 0 0
263 1 19.202792013150297 -10.24726779778443 0 0 0 0
300 1 17.34288364032827 -11.478692140202346 0 0 0 0
849 1 19.27012836851906 -11.368301830443407 0 0 0 0
1537 2 20.303802017680898 -9.015436010259837 0 0 0 0
344 1 -19.710353926322174 -10.179744389367649 0 0 0 0
886 1 -19.750352054525493 -11.316949852458219 0 0 0 0
741 1 -17.728429163366155 -9.209298062642771 0 0 0 0
1445 1 -18.763878032659427 -10.830112885689646 0 0 0 0
229 1 -15.90207898154637 -11.61115513065698 0 0 0 0
303 1 -14.905481128288779 -9.969369147591006 0 0 0 0
486 1 -16.80257401206339 -9.847546173589095 0 0 0 0
712 1 -17.78100633043591 -10.342084356000724 0 0 0 0
1120 1 -15.873620060187559 -10.478748522031578 0 0 0 0
129 1 -12.960221003404753 -8.949562097547432 0 0 0 0
250 1 -13.974967267696764 -10.585017644635872 0 0 0 0
302 1 -13.039189295063814 -10.040416743741183 0 0 0 0
1492 1 -13.947473778010025 -9.447378403209534 0 0 0 0
57 1 -11.229074045527693 -11.086348344234304 0 0 0 0
409 1 -10.209271834900067 -11.318103865884831 0 0 0 0
644 1 -10.128668345351876 -8.458379459962977 0 0 0 0
737 1 -12.016609609894457 -9.55570982726396 0 0 0 0
920 1 -12.156966994535024 -10.625188352074597 0 0 0 0
1196 1 -9.857741894241657 -9.478631105098124 0 0 0 0
1429 1 -10.646407779712314 -10.196352193771771 0 0 0 0
24 1 -9.521985519964966 -10.502922782567028 0 0 0 0
1176 1 -8.781197355293218 -9.707718364549281 0 0 0 0
1427 1 -8.44136369816898 -10.739105190216536 0 0 0 0
15 1 -7.0410893058468975 -9.09917034221692 0 0 0 0
688 1 -7.368752917285132 -10.953162923836542 0 0 0 0
850 1 -8.081847331954275 -11.773199230155402 0 0 0 0
1410 1 -7.729344494464994 -9.918516108627326 0 0 0 0
16 1 -6.336320382307594 -8.273476715608616 0 0 0 0
36 1 -6.660985576323057 -10.128277792335705 0 0 0 0
73 1 -4.891925766310708 -9.485831334887203 0 0 0 0
674 1 -5.963633600663112 -9.295985923338026 0 0 0 0
735 1 -4.519838972558047 -10.514801016780593 0 0 0 0
895 1 -3.8218177791027275 -9.66907684567292 0 0 0 0
1055 1 -5.590907707021484 -10.325336671096885 0 0 0 0
138 1 -2.0068355094818187 -11.899272772373916 0 0 0 0
768 1 -1.6824636861593987 -10.020014729483348 0 0 0 0
890 1 -2.752292653705515 -9.846702899155543 0 0 0 0
910 1 -2.3785430293259426 -10.872597099388187 0 0 0 0
1474 1 -3.1244526015167646 -8.821123054696349 0 0 0 0
726 1 -0.9925457319210061 -9.168579836351237 0 0 0 0
831 1 -1.3067175376156712 -11.042047854456994 0 0 0 0
164 1 0.8501102531534487 -11.385382630868365 0 0 0 0
680 1 -0.6098114023911717 -10.194794653986769 0 0 0 0
777 1 -0.22940491197829477 -11.216282552175036 0 0 0 0
1003 1 0.4685557865434577 -10.368568804146888 0 0 0 0
248 1 2.730247739827299 -10.820244745430895 0 0 0 0
661 1 2.158541232414725 -9.661115875391234 0 0 0 0
685 1 1.5639304664553195 -10.549715075256271 0 0 0 0
1123 1 1.1239481103226716 -9.508340545665526 0 0 0 0
1209 1 4.1100153822548515 -10.223742493969166 0 0 0 0
1370 1 3.1674192196276687 -9.838490836996716 0 0 0 0
583 1 4.939126806305565 -9.550915262100732 0 0 0 0
1025 1 4.800363259163058 -8.426590525415724 0 0 0 0
1156 1 3.9587983719622355 -9.103496482663923 0 0 0 0
121 1 7.658572966690455 -8.793447569480874 0 0 0 0
327 1 7.730754400462009 -9.922382330521826 0 0 0 0
382 1 5.88245437698259 -10.063267065993154 0 0 0 0
518 1 6.761927605472473 -9.419710631405117 0 0 0 0
1151 1 6.837866698687176 -10.56192188013428 0 0 0 0
1456 1 6.683733737329034 -8.2874402798238 0 0 0 0
150 1 10.520816320498076 -9.164355859198329 0 0 0 0
508 1 8.70335837062484 -10.418354632386414 0 0 0 0
1099 1 9.540688738693555 -8.6690616831223 0 0 0 0
1197 1 8.633713031471276 -9.293704487556024 0 0 0 0
1434 1 10.589491006198138 -10.284153973830215 0 0 0 0
1452 1 9.610906920120064 -9.789460577158152 0 0 0 0
39 1 11.4307991456471 -8.540533516036376 0 0 0 0
211 1 13.395420485595878 -9.530080261795732 0 0 0 0
550 1 11.50152605117383 -9.659630991457078 0 0 0 0
1371 1 12.413320090336246 -9.035577281345207 0 0 0 0
122 1 14.378106546491123 -10.022521241333877 0 0 0 0
412 1 15.225048070876515 -8.28042833571709 0 0 0 0
496 1 14.447917700629036 -11.139453453945228 0 0 0 0
1102 1 15.294494627841559 -9.396698464498229 0 0 0 0
246 1 17.127806762721764 -8.149233571925123 0 0 0 0
315 1 16.281980949732024 -9.886030122288217 0 0 0 0
541 1 17.203083467579507 -9.26349797139579 0 0 0 0
670 1 18.120461798363888 -8.638083562938657 0 0 0 0
815 1 16.212148241362662 -8.772953378598443 0 0 0 0
984 1 18.043462517690426 -7.524114891651023 0 0 0 0
1401 1 18.199153709377033 -9.753240804186765 0 0 0 0
290 1 20.11554747711361 -9.597730550235918 0 0 0 0
796 1 19.112405748525465 -9.125430769184637 0 0 0 0
1280 1 20.954009837016013 -7.879581701986778 0 0 0 0
1285 1 20.017783705425547 -8.477914045447735 0 0 0 0
1564 2 19.666104598779995 -7.939620699675999 0 0 0 0
48 1 -21.467948819758522 -7.744110189258058 0 0 0 0
84 1 -20.47709647049067 -7.260188108489113 0 0 0 0
507 1 -19.558825213393128 -7.908893822518427 0 0 0 0
557 1 -20.62154319332296 -9.501700283788775 0 0 0 0
783 1 -20.541654690005995 -8.394485337624022 0 0 0 0
785 1 -21.546099744248394 -8.864090780208796 0 0 0 0
119 1 -18.714704619438876 -9.697507675206163 0 0 0 0
203 1 -18.57563668980189 -7.426154012474373 0 0 0 0
348 1 -19.634516657226218 -9.040317991954442 0 0 0 0
623 1 -16.74968944927717 -8.714021638192895 0 0 0 0
1205 1 -18.645648275615272 -8.562122563570943 0 0 0 0
1321 1 -17.66421169960097 -8.073386134922304 0 0 0 0
62 1 -15.773997539758655 -8.215042138545817 0 0 0 0
137 1 -15.829410313173396 -9.345953746023119 0 0 0 0
375 1 -14.860482106735036 -8.83742986411355 0 0 0 0
1126 1 -14.793430798932526 -7.719221375155018 0 0 0 0
1306 1 -16.68477711755864 -7.581840199301954 0 0 0 0
9 1 -12.897389301196839 -7.845533418421727 0 0 0 0
964 1 -13.879927700713544 -8.337823637213955 0 0 0 0
353 1 -11.829349086974108 -6.2548857977065975 0 0 0 0
423 1 -11.003245655069907 -9.112854640290525 0 0 0 0
442 1 -10.84587246842481 -5.774815917296517 0 0 0 0
692 1 -10.907784021015672 -6.879100266449422 0 0 0 0
853 1 -11.979386929950685 -8.467146415862551 0 0 0 0
1213 1 -11.925745802841421 -7.345319842939974 0 0 0 0
1385 1 -11.040286859595508 -7.951762963091144 0 0 0 0
180 1 -9.669725993510148 -7.497785577552761 0 0 0 0
503 1 -9.092966518846444 -8.69073101170247 0 0 0 0
763 1 -7.749212091949405 -7.0580262378672876 0 0 0 0
771 1 -7.42993682314309 -8.093986345720195 0 0 0 0
415 1 -5.2622120510187775 -8.45950804693621 0 0 0 0
636 1 -5.6236348349671355 -7.436286405227941 0 0 0 0
1064 1 -4.55759387870436 -7.617913363342933 0 0 0 0
743 1 -3.491377118040719 -7.796641104415446 0 0 0 0
780 1 -4.192498767351106 -8.642755734589814 0 0 0 0
991 1 -3.855435787316501 -6.772231790556446 0 0 0 0
1100 1 -2.0574881047374793 -8.995457209824188 0 0 0 0
1222 1 -1.7224943574509473 -7.12062706543906 0 0 0 0
1308 1 0.06840427480422208 -9.34151298359 0 0 0 0
1459 1 -2.424636369882378 -7.971779064070302 0 0 0 0
1493 1 -1.358639717828469 -8.14339750143365 0 0 0 0
386 1 0.40000430888624344 -7.462818228734152 0 0 0 0
533 1 -0.2950869599433537 -8.314736367446288 0 0 0 0
830 1 0.7691677075922811 -8.491971449877926 0 0 0 0
450 1 2.663893044584983 -7.762754657744806 0 0 0 0
696 1 1.8576201329763036 -8.636252130246106 0 0 0 0
851 1 1.4572334104804858 -7.657856735079093 0 0 0 0
931 1 2.8779483964229575 -6.159114525936449 0 0 0 0
332 1 4.606121189370747 -6.206143320439307 0 0 0 0
576 1 5.690539060532259 -7.794205172692219 0 0 0 0
657 1 5.796605380912044 -8.9076532495582 0 0 0 0
721 1 5.597497260865885 -6.688032701801715 0 0 0 0
877 1 2.9245221512698523 -8.796706551345139 0 0 0 0
1049 1 4.678837574451487 -7.327108904647053 0 0 0 0
1165 1 3.66810200647135 -6.895626905199691 0 0 0 0
1389 1 3.757637610888055 -8.008692729218918 0 0 0 0
217 1 7.583309209315006 -7.670924831754326 0 0 0 0
322 1 7.5048136362750135 -6.558206396205494 0 0 0 0
444 1 8.414756077097257 -5.939773113298075 0 0 0 0
701 1 6.594917178465368 -7.1748237183390815 0 0 0 0
1360 1 6.518026161835235 -6.06651886939095 0 0 0 0
1443 1 8.488437583502794 -7.053232219528304 0 0 0 0
383 1 10.375491243626353 -6.9283416569890734 0 0 0 0
634 1 9.468217034117826 -7.550085635559198 0 0 0 0
1320 1 10.448638630050262 -8.045677353052307 0 0 0 0
1343 1 8.562072947611231 -8.171613945306982 0 0 0 0
1464 1 9.395330590168713 -6.433416861693405 0 0 0 0
178 1 13.325565691671233 -8.411559769311214 0 0 0 0
352 1 12.267574937198203 -6.802333553487445 0 0 0 0
543 1 11.357375633356042 -7.4233217711263 0 0 0 0
835 1 11.284225616286921 -6.307875874993884 0 0 0 0
1047 1 12.341298240448328 -7.917742175142469 0 0 0 0
46 1 15.152640525055297 -7.163624243522885 0 0 0 0
289 1 13.253196795126815 -7.29552933522662 0 0 0 0
626 1 16.13934899672368 -7.656555391042548 0 0 0 0
1127 1 14.239031841829327 -7.787887102852378 0 0 0 0
1245 1 14.309674964971975 -8.904749085326932 0 0 0 0
1045 1 17.05377984645883 -7.032736937331632 0 0 0 0
360 1 19.038640778972358 -8.005050921660247 0 0 0 0
475 1 18.96565465055584 -6.901114124906924 0 0 0 0
501 1 19.888020506946287 -6.283357022617389 0 0 0 0
1043 1 19.96674315225996 -7.385389851011418 0 0 0 0
911 1 20.891261300742293 -6.779352848528804 0 0 0 0
917 1 20.81088511688504 -5.669364327026829 0 0 0 0
1572 2 21.41402242048767 -5.5691869216374785 0 0 0 0
1584 2 20.606203703702658 -7.347016215787736 0 0 0 0
14 1 -21.403341772803792 -6.611114872610713 0 0 0 0
608 1 -22.223026697948917 -4.815223968023072 0 0 0 0
1159 1 -20.405522008208855 -6.129150141683321 0 0 0 0
1175 1 -21.31079791368744 -5.472493286042468 0 0 0 0
67 1 -17.430583459577587 -4.694905712670744 0 0 0 0
135 1 -17.515793042962546 -5.815760085831524 0 0 0 0
244 1 -20.3159759244569 -4.9956971340596 0 0 0 0
650 1 -18.503341665929348 -6.295720853158869 0 0 0 0
756 1 -19.413063647016997 -5.648050152998393 0 0 0 0
837 1 -19.48979258095326 -6.7772691081058465 0 0 0 0
878 1 -19.321999988934138 -4.519344053872494 0 0 0 0
888 1 -17.593454295341537 -6.940736114920331 0 0 0 0
1289 1 -18.42156653233465 -5.17020186535101 0 0 0 0
1354 1 -16.609101610583526 -6.456559357616447 0 0 0 0
1381 1 -15.622367386632405 -5.9735011161195 0 0 0 0
441 1 -16.526852351557054 -5.337267557861031 0 0 0 0
699 1 -15.536787075063557 -4.859622138209775 0 0 0 0
929 1 -15.702584130547963 -7.091898243721796 0 0 0 0
1307 1 -14.633832727007619 -5.490939634853138 0 0 0 0
182 1 -13.730936297855962 -6.116274894278592 0 0 0 0
668 1 -13.809652426149864 -7.227199700575972 0 0 0 0
1405 1 -13.642486651488724 -5.010298784387697 0 0 0 0
1433 1 -14.71748369239141 -6.603686286989198 0 0 0 0
309 1 -11.75233240995156 -5.1509521823778694 0 0 0 0
628 1 -10.789116987385565 -4.639288802534682 0 0 0 0
788 1 -12.827034807160517 -6.734627450761829 0 0 0 0
923 1 -12.738822545051047 -5.634094339652929 0 0 0 0
1039 1 -11.671054196742922 -4.036494062621848 0 0 0 0
58 1 -9.058470426113965 -5.791800735775434 0 0 0 0
60 1 -9.926089034199673 -6.4139969555526815 0 0 0 0
529 1 -9.757338756439847 -4.159745841114788 0 0 0 0
676 1 -8.495449417436758 -7.83096711644762 0 0 0 0
686 1 -9.91783930178378 -5.2266190245164585 0 0 0 0
901 1 -8.059803484435294 -6.042414505990986 0 0 0 0
1019 1 -8.834762975411696 -6.820921729317078 0 0 0 0
105 1 -7.418696534157079 -5.207208981101944 0 0 0 0
200 1 -6.359693289943859 -5.374410394922127 0 0 0 0
717 1 -6.690532123933371 -7.258132281568051 0 0 0 0
818 1 -7.02221512249434 -6.230897421161368 0 0 0 0
12 1 -4.918156792543048 -6.5928482631761085 0 0 0 0
411 1 -5.294033015028498 -5.566705934931803 0 0 0 0
1133 1 -5.976138602484339 -6.410924087758832 0 0 0 0
732 1 -2.450923429350805 -5.091561661761065 0 0 0 0
1092 1 -4.227094000868622 -5.748151165993497 0 0 0 0
52 1 -0.6590597912640418 -7.287087616973366 0 0 0 0
118 1 -1.38714669940765 -5.249726665895249 0 0 0 0
604 1 -3.1568939504314435 -5.928706389366489 0 0 0 0
729 1 -2.0863242853571133 -6.104716344301967 0 0 0 0