 # File generated with Atomsk by slfkd on 2022-08-04 13:49:46
 
           6  atoms
           3  atom types
 
      0.000000000000       3.196300000000  xlo xhi
      0.000000000000       3.196300000000  ylo yhi
      0.000000000000       3.916200000000  zlo zhi
 
Masses
 
            1   6.94000000              # Li
            2   1.00800000              # H
            3   15.99900000             # O
 
Atoms # atomic
 
         1    1        1.598150000000       1.598150000000       0.000000000000
         2    2        1.598150000000       0.000000000000       2.035640760000
         3    3        0.000000000000       1.598150000000       0.927003702000
         4    1        0.000000000000       0.000000000000       0.000000000000
         5    2        3.196300000000       1.598150000000       1.880559240000
         6    3        1.598150000000       0.000000000000       2.989196298000
