LAMMPS data file via write_data, version 29 Sep 2021, timestep = 214000

576 atoms
2 atom types

-0.10394128515260981 20.689518996750415 xlo xhi
0.6662641448110733 19.919313566788176 ylo yhi
0.959428348906739 19.62614936269256 zlo zhi

Masses

1 28.0855
2 15.9994

Atoms # full

44 5 2 -0.55 3.8003033498954095 2.6210743090055906 4.971729240762886 0 0 0
157 18 2 -0.55 1.818960287783882 4.219518172017761 4.576351202977113 0 0 0
127 15 1 1.1 3.4309306808965436 4.1095369821023855 4.590028567969499 0 1 0
504 56 2 -0.55 3.9528072334457693 5.149663625583268 5.690576458242958 0 0 0
307 35 1 1.1 2.903248643448807 1.3362457710948599 5.349269458568308 1 0 0
198 22 2 -0.55 4.0845432745499775 4.4623221301365135 3.1873204510217974 0 0 0
137 16 1 1.1 0.5907656388947689 4.478536029972229 5.635051599145128 1 0 0
42 5 2 -0.55 5.615714809468763 1.6112329748112908 2.6419608794070335 0 0 0
516 58 1 1.1 5.867256570924374 3.19448399683057 2.6410304704188343 0 0 1
53 6 2 -0.55 0.7457895395839319 6.634210501672446 2.5014149720116565 0 0 0
36 4 2 -0.55 6.295632923729795 4.431304729682106 6.357861195617282 0 0 -1
295 33 2 -0.55 2.011380150144998 1.637511236108489 6.694173132318412 0 0 0
559 63 1 1.1 1.463162132078573 6.963008206838786 6.744654454000707 1 0 1
150 17 2 -0.55 1.8733990873882063 1.134510667990739 4.039850527724997 0 0 0
28 4 1 1.1 4.373498826622797 6.0714475726669574 2.674429944622558 1 0 0
71 8 2 -0.55 1.0998110168322048 5.413996659046313 6.838806482483604 1 0 0
85 10 2 -0.55 5.737135774174754 6.678287646392955 3.345141746263709 0 0 0
481 54 2 -0.55 4.38019312057043 5.936102078983827 1.0703830059036803 0 -1 1
52 6 2 -0.55 6.527321150902205 4.0074352561693205 3.811920651446947 0 0 0
275 31 2 -0.55 6.563723758312898 3.633828762045303 1.302474915269002 0 1 1
125 14 2 -0.55 3.2048479758670876 7.027898926338803 3.1668324645635972 0 0 -1
159 18 2 -0.55 0.047837374050032966 0.6688846823316497 2.025176677491198 0 0 0
148 17 2 -0.55 0.0019156821157824966 3.0720359011986784 6.1764750024399735 0 0 1
37 5 1 1.1 4.880999247827114 4.770559008262055 7.025254268494326 0 0 0
155 18 1 1.1 0.48668929115089243 7.096571871592706 1.012197345992547 0 0 0
96 11 2 -0.55 7.12566598165416 2.1206294581874667 5.175844849913723 0 0 0
469 53 1 1.1 7.205007196838209 3.706686994713769 5.230760230359164 0 0 1
244 28 1 1.1 9.366692990147527 6.1164530444858585 2.012969482414471 0 1 1
454 51 2 -0.55 9.057587415440823 3.1076505219331816 2.3207740553806175 0 0 1
154 18 1 1.1 9.558424866587957 4.753576942523561 6.593667042596171 0 0 0
153 17 2 -0.55 8.698550539615736 4.118642165519698 5.454051500753053 0 -1 0
419 47 2 -0.55 10.5520348844198 5.1713456675443075 2.6074144168115727 0 1 1
380 43 1 1.1 10.574242774021991 3.5394219074402193 2.760679859362706 0 1 1
414 46 2 -0.55 10.987849714820165 3.1248001460689525 4.250451519637567 0 0 0
143 16 2 -0.55 11.14062047110851 4.4339413176733675 6.680226026401547 0 0 0
226 26 1 1.1 11.981359403751775 2.0351027789395264 4.938549076800824 0 0 1
447 50 2 -0.55 11.467915635801694 1.4655519943683604 6.35094013083809 0 0 1
140 16 2 -0.55 13.426839190932224 2.6590026582698725 5.2062176675357685 0 0 0
467 52 2 -0.55 9.529282386081752 6.360952353027023 6.496408970840708 0 0 0
440 49 2 -0.55 12.85258707781057 5.828863879992662 5.309189481987475 0 -1 0
174 20 1 1.1 12.515182274692485 5.183967816618326 6.742466344955456 0 -1 0
236 27 1 1.1 8.188239714060899 0.9226680752359003 5.56875370896092 0 1 0
520 58 2 -0.55 11.638244843084125 2.94425206563576 1.7237073968188876 -1 0 1
458 51 2 -0.55 8.271271718441394 6.370243224746008 3.108685917163987 0 -1 1
297 33 2 -0.55 9.013377182243806 1.4538401954538278 6.832790772707819 0 0 0
178 20 2 -0.55 11.78734539127781 0.7707511432504486 3.9623864669731006 0 0 0
399 45 1 1.1 8.162313409907172 3.627078026959288 1.0333355107767586 0 1 1
320 36 2 -0.55 14.231996961441784 2.7374970876430473 1.8182472380212045 0 0 1
290 33 1 1.1 14.236963731007707 2.8017427311620464 6.575565776360044 -1 0 0
166 19 2 -0.55 14.160006470093792 6.297714535646862 2.935724434167782 0 -1 0
576 64 2 -0.55 20.335367182646834 5.389203740998287 4.849253998661896 0 1 0
119 14 1 1.1 18.817986095088713 5.841335965963311 4.421112494693354 -1 1 0
338 38 2 -0.55 18.47170663720707 4.942531572225623 3.1459911413070114 0 -1 1
345 39 1 1.1 18.3225734181516 3.298180673760586 2.676495116690975 0 0 0
299 34 1 1.1 15.528625465097813 2.0106969255980496 2.462131820804019 0 0 1
139 16 2 -0.55 16.738126610651648 3.0329798242823705 2.813477707019807 0 1 0
187 21 2 -0.55 18.907497827204182 2.9281127289417883 1.2411188402462305 -1 0 0
402 45 2 -0.55 15.824883598582932 2.5327154907276066 6.318860298491669 -1 0 1
264 30 1 1.1 16.535459822039932 5.971171523144329 6.330709042571696 0 0 0
277 31 2 -0.55 17.919057440549153 5.522099878703325 5.676857862691312 -1 0 0
169 19 2 -0.55 15.503496349878972 5.6367466603569385 5.148047033163515 0 0 0
509 57 2 -0.55 19.082416523557008 2.380904455013419 3.7451020079774318 -1 1 1
381 43 1 1.1 14.152379048749689 6.345127465840809 4.552666286088071 0 0 0
208 24 1 1.1 14.367215836254989 6.4517713826472916 1.3031709869686179 0 0 0
412 46 2 -0.55 18.24802513220567 1.6173503991102063 5.908382571601135 -1 0 0
262 30 1 1.1 18.944917038954962 1.0451931198212594 4.6158686277064085 0 1 0
106 12 2 -0.55 15.034543896253822 1.0354861791301806 3.676573082863748 0 0 -1
92 11 1 1.1 16.965814770838143 1.5255356123497634 6.861279681206214 0 0 0
332 37 2 -0.55 16.165128896581457 0.9863330039758598 1.2817026516552639 -1 0 1
492 55 2 -0.55 1.6965465040711314 7.291082162365299 5.186146099931953 0 0 1
370 42 1 1.1 1.7121761745734903 7.343991985468602 3.5524927681515446 0 0 0
278 31 2 -0.55 1.2793682205387522 8.910254855523737 3.2908096458730234 0 0 0
230 26 2 -0.55 2.7908312263396104 10.915856352853348 3.2407403716279797 0 0 0
253 29 1 1.1 4.248827018171473 10.283286949360555 3.105524650599078 0 -1 1
437 49 2 -0.55 5.244564272042083 11.47030859558182 2.7484920056582793 0 -1 1
171 19 2 -0.55 0.3065458786753951 10.63176752296377 6.388042645423025 0 -1 -1
417 47 1 1.1 4.4282713812748575 9.753213337945237 6.033729908382238 0 0 0
86 10 2 -0.55 4.768106326934032 9.61634543755404 4.495543149363195 0 0 1
558 62 2 -0.55 2.804274319851986 9.96838053532825 6.117817764551888 0 1 0
436 49 2 -0.55 4.1046893471515125 9.21692472330829 1.9329855595921024 0 0 1
556 62 2 -0.55 1.9171181024418598 12.411056091816508 6.357340503693549 0 0 0
479 54 1 1.1 1.279810288800925 10.528168082808502 2.945915862385527 0 0 1
112 13 2 -0.55 5.07869217316914 11.085400126166858 6.602685308409702 0 0 0
304 34 2 -0.55 0.8110253026013294 10.737285487410388 1.4614184322614532 0 0 0
461 52 1 1.1 1.8177653608909026 10.911368727503069 6.861307860812466 0 -1 0
314 35 2 -0.55 0.2696049080164238 11.331981660838807 3.9173679524094815 1 -1 0
296 33 2 -0.55 4.8845115387684706 8.46357250904924 6.908271740062681 0 1 0
362 41 1 1.1 6.374761470198319 11.897177353525496 1.7170880111654523 0 0 1
459 51 2 -0.55 2.975154739562615 13.345357152453062 1.4288396887386232 0 -1 0
181 21 1 1.1 4.949875889658403 12.592930307581073 7.069628006638676 0 0 0
540 60 2 -0.55 6.36452782118876 13.31837354336418 7.266443926864415 1 0 0
135 15 2 -0.55 4.182408332808615 13.539291592934125 6.005121384227631 1 0 0
396 44 2 -0.55 7.481137082026555 7.416741211960464 5.285131262164421 0 0 0
93 11 1 1.1 7.166140679249867 7.294329364456309 3.710390114376151 0 0 0
317 36 1 1.1 8.846297707787793 7.727587098027372 6.144130733996045 0 0 1
446 50 2 -0.55 12.273642900902457 9.152190369735555 1.699429166008004 0 0 1
312 35 2 -0.55 9.935387726509216 9.755078398356856 2.912436906390436 0 -1 0
371 42 1 1.1 8.781456656992276 11.54549018930835 5.748219695499721 0 0 0
12 2 1 1.1 10.654753015969868 8.990921630505285 1.711653825922089 0 -1 0
80 9 2 -0.55 12.31511441946822 9.5395527886662 4.680196585017242 0 -1 0
575 64 2 -0.55 10.373002086383181 11.02673491873359 5.6397320869952505 0 0 0
471 53 1 1.1 11.08642411162277 9.611559306145661 5.668424555517482 -1 -1 0
302 34 2 -0.55 9.996802919102613 8.508958682576301 5.319265616143035 0 -1 0
199 23 1 1.1 8.292034004223394 10.017923682560406 3.1827334434644032 0 0 0
517 58 2 -0.55 7.3389996540671385 8.759783436083763 2.976549863876274 0 0 1
247 28 2 -0.55 8.03425673411535 10.52298571031262 4.775645740317181 0 0 1
502 56 2 -0.55 12.658650022212264 11.662779364615547 2.397599417384356 0 0 1
160 18 2 -0.55 7.7710515538453215 11.156230684003024 2.1523791714462623 0 -1 0
39 5 1 1.1 13.455582334529527 10.283503473485137 2.0024265220777497 -1 0 0
132 15 2 -0.55 10.169564525968289 7.45729761116642 1.6133571859478502 0 0 1
17 2 2 -0.55 11.132292377863756 12.953072945110446 3.9843630016447413 0 -1 0
269 30 2 -0.55 8.705085231475625 12.931828543799485 4.977767246547721 0 0 0
118 14 1 1.1 12.341449197873887 13.103092535958924 3.0183575359595154 0 0 0
495 55 2 -0.55 11.601997253318588 9.511681713040382 7.194651305370505 0 -1 0
542 61 1 1.1 13.895607057295726 9.379436059203202 4.6779711079689985 -1 0 1
162 18 2 -0.55 14.233152246458532 7.874364314740129 5.066142451100393 0 -1 0
356 40 2 -0.55 14.263701497039287 9.599830335865162 3.164233148949793 0 0 1
535 60 2 -0.55 18.73252716212901 7.413927495421678 4.046809909795156 0 0 1
480 54 1 1.1 20.148291579051346 11.178000772186017 5.171754040211195 -1 0 1
528 59 2 -0.55 19.46778087710465 12.583246221329526 5.624375247525496 0 0 1
134 15 2 -0.55 14.770439958084483 10.464420882507513 5.523835118170317 0 0 -1
518 58 2 -0.55 18.535853421567033 9.5891341670023 2.421709209149868 -1 0 1
29 4 1 1.1 18.285294098606734 8.991127523641916 3.8928451089818457 0 0 0
103 12 2 -0.55 19.159026478945876 9.919366449224269 4.874608637557246 0 0 0
45 5 2 -0.55 16.832470286094534 9.460984625027015 4.438801204072109 -1 0 0
336 38 1 1.1 16.373310710129964 10.592372770883038 5.430390009236895 -1 0 0
322 36 2 -0.55 16.670283171866963 12.119902130329892 5.095429530378916 0 -1 0
258 29 2 -0.55 16.537180530240192 7.543063371571394 6.704239938172883 -1 1 0
411 46 2 -0.55 17.01416558472276 10.13609106487904 6.852746746476439 0 1 0
182 21 1 1.1 19.304718383571846 13.69389257684625 6.796292478973601 -1 0 0
76 9 2 -0.55 0.523940851370679 13.617315666471685 2.052508722932897 0 0 0
58 7 2 -0.55 6.395396456429757 13.542296742616685 1.4961986905024252 1 -1 0
14 2 2 -0.55 2.4739183984490607 13.65990746787467 4.090761018804704 0 -1 0
219 25 1 1.1 2.5842505607537802 13.68343818458157 5.6331711732238094 0 0 0
138 16 1 1.1 0.7046898595353348 19.51081095667906 3.3893350300773375 1 -1 0
191 22 1 1.1 5.59021960435932 19.373510052130097 2.0039345931106984 0 -1 1
397 45 1 1.1 2.039756331370632 14.022485673244555 2.509959197455986 0 0 0
256 29 2 -0.55 1.331690931649244 18.08614964453358 3.0130609543219076 0 0 1
406 46 1 1.1 4.261851075396211 18.04348263597286 4.533469180635237 0 0 1
496 56 1 1.1 1.7326567293770077 16.71523773689403 3.636227763164951 0 -1 1
490 55 2 -0.55 3.792742074218901 19.30062503633611 5.346841711103874 0 -1 1
232 26 2 -0.55 3.0500841453831953 17.00676468562077 4.498297221534824 0 -1 0
203 23 2 -0.55 5.491498427629962 17.195688136962644 5.048201191394491 0 -1 0
1 1 1 1.1 0.6361649680729741 15.967852236461002 6.283865870695979 0 0 0
311 35 2 -0.55 0.6022824104042537 16.35414543117529 4.705978468490343 0 -1 1
51 6 2 -0.55 1.9493609405551706 15.60529259779947 2.5089998212221585 0 -1 0
105 12 2 -0.55 4.624336634336798 18.534087797523313 3.0138966639594766 0 -1 0
179 20 2 -0.55 1.8948746999693538 14.951327305820264 6.28233622949934 0 -1 0
133 15 2 -0.55 6.240098684538075 15.235700210829886 3.509744551604116 0 0 -1
507 57 1 1.1 6.163676324017512 15.100867233434828 1.94768393185758 0 -1 1
423 47 2 -0.55 4.727685490093268 15.518041806543282 1.3603539246906982 1 0 0
403 45 2 -0.55 0.7336167488863555 17.30284853754653 7.128328360511884 0 0 0
451 51 1 1.1 6.710085192129214 16.199757128430473 4.693703819868725 0 -1 1
231 26 2 -0.55 9.178651270674099 19.754228581775187 4.352940880890631 0 0 0
15 2 2 -0.55 6.987183809847871 18.621501604007374 1.6996148321349758 0 -1 -1
229 26 2 -0.55 13.451519913174211 13.785034920033487 3.9346394158808886 0 0 1
16 2 2 -0.55 7.11046084513535 15.375088362372816 5.96245146677181 0 -1 -1
240 27 2 -0.55 12.477357549611597 14.10260210278011 6.55455025481681 0 0 0
95 11 2 -0.55 7.245941700795005 19.041688041284775 6.187342765467477 0 -1 0
142 16 2 -0.55 9.31721868902709 13.795826901695335 2.3533653029269086 1 0 0
532 60 1 1.1 9.752771730374489 13.694404269607544 3.971257158635919 1 0 1
25 3 2 -0.55 8.124944211100294 16.867119798510597 4.23199021732221 0 0 -1
392 44 2 -0.55 10.015599097608659 15.177090876895113 4.492822270372546 0 0 1
298 34 1 1.1 10.46830396095291 19.197457872145613 3.5094244123851244 0 -1 0
415 47 1 1.1 9.613253458667343 16.663289067608698 4.821068601638533 0 0 0
306 34 2 -0.55 10.574396386655275 17.654870226485954 4.000290352273607 0 0 0
319 36 2 -0.55 10.30400771213305 19.238621016241893 1.940724620394402 0 -1 0
503 56 2 -0.55 9.832464041193 17.08701435093528 6.380006384255713 0 -1 0
11 2 1 1.1 13.329664556366982 17.465999792619787 1.3796590452177746 0 -1 0
131 15 2 -0.55 11.743260981892991 14.064685954851779 1.7796580561210988 0 0 1
72 8 2 -0.55 7.250584862928591 16.048220514309975 1.2484962499358199 0 0 0
6 1 2 -0.55 12.310640771356537 17.25614953547237 7.107525716482458 -1 -1 0
444 50 1 1.1 10.282191045944362 13.866195817183124 1.0654575199856646 0 -1 0
9 1 2 -0.55 11.738519592167219 17.29745355956384 1.1800950929153093 -1 -1 0
472 53 2 -0.55 13.647589436818773 18.45818042293373 2.578242625196669 -1 0 1
435 49 1 1.1 13.641011295265857 17.24947214378165 6.233812902247384 -1 -1 1
222 25 2 -0.55 13.556573628070643 15.961466890360459 5.2780626529914105 0 0 0
91 11 1 1.1 16.53518987654833 13.676120967656194 5.6650198639387614 0 0 0
200 23 1 1.1 13.602800690312606 14.39015757173337 5.399195955088086 0 0 0
285 32 2 -0.55 13.80322421991774 18.569939121191293 5.307921982087382 0 0 0
545 61 2 -0.55 17.677688273655022 13.957001984168395 6.763056244795278 -1 0 1
207 23 2 -0.55 20.354248463004282 19.513046422222533 4.521483320249307 0 -2 0
465 52 2 -0.55 14.08299372243608 15.969599438283536 1.649499079799817 0 -1 1
141 16 2 -0.55 15.00820951559289 13.952195301676364 6.019283704745942 0 0 0
243 27 2 -0.55 16.861496440114678 14.596868249563208 4.335125796778339 0 0 0
364 41 2 -0.55 18.909514638545893 14.309792808174143 2.5815707827253265 -1 -1 1
565 63 2 -0.55 20.099223530534026 15.171783896217647 6.58287304148055 0 1 0
327 37 1 1.1 14.574271937194828 18.74182637325278 3.898588327862509 -1 -1 0
428 48 2 -0.55 17.92959795889047 19.129535571813786 4.107073424952599 0 0 1
524 59 1 1.1 17.376462573258983 17.677619095109236 4.413129016509755 0 0 1
539 60 2 -0.55 15.839037025369867 17.717253703433695 3.958800581427002 0 0 1
352 40 1 1.1 17.64390094186934 15.137136031436043 3.042676701726078 0 0 1
180 20 2 -0.55 18.12191366574187 16.63334303143491 3.4692443983265617 0 -1 0
158 18 2 -0.55 17.45631541905871 17.288804432551387 5.9975706748016275 -1 -1 0
168 19 2 -0.55 16.59160136890757 15.23661165198159 1.8229080113782565 0 -1 0
172 20 1 1.1 19.948186856231025 14.019725852426712 1.3614091971606515 0 0 0
255 29 1 1.1 15.252189320476933 15.104198058609713 19.62047273580891 -1 0 -1
452 51 1 1.1 0.5486905957185974 1.9869287639571784 7.261011736472153 0 0 1
547 61 2 -0.55 4.210062812012981 3.5134737549039103 7.772196926498616 0 0 0
87 10 2 -0.55 4.999892169248645 6.0349600578753835 7.9776242951505125 0 0 0
147 17 1 1.1 4.915370080334586 2.294797029784365 8.677964271059022 0 0 -1
89 10 2 -0.55 3.710236287745516 1.960880547428235 12.534411415339907 0 0 -1
26 3 2 -0.55 1.706525560666626 2.354124711320196 10.974520499763203 0 0 -1
389 44 1 1.1 3.018025080372736 1.476815553017452 11.142901430813906 1 1 0
117 13 2 -0.55 4.003752930737095 1.7267694045978763 9.867853340696033 0 1 0
527 59 2 -0.55 6.248288577125021 3.096686453033689 9.198012499215018 0 1 1
474 53 2 -0.55 0.37779234604952017 2.542607490546112 8.7894093556204 0 0 0
420 47 2 -0.55 5.55753598443878 1.1683621829674877 7.700750069212546 0 0 1
289 33 1 1.1 0.24860153966663084 2.5853156994783815 10.417498706761664 0 0 0
60 7 2 -0.55 1.9574896170360874 5.072327319612754 13.069361559870408 0 0 0
365 41 2 -0.55 4.583935311505031 5.465259211859319 13.071507232794046 0 0 1
395 44 2 -0.55 6.431174208457636 2.7648870132948633 11.677431880926836 0 0 -1
550 62 1 1.1 3.110316018800527 6.212494734502846 13.23832024681795 0 1 0
346 39 2 -0.55 6.849491316805644 6.530706420196674 12.943143622489384 0 0 1
104 12 2 -0.55 13.783816740115945 4.2138298250802055 7.095027736380481 0 0 0
21 3 1 1.1 6.952782881798281 2.538262677738174 13.1640548806755 0 0 -1
514 58 1 1.1 10.430037493468856 1.298746520417982 7.533389522406449 0 1 0
350 39 2 -0.55 12.602301795364808 6.218821760122104 7.9747084174636536 0 0 0
457 51 2 -0.55 8.177809766960515 1.5963704692814042 10.090609122072369 0 0 0
209 24 1 1.1 7.306669947163291 2.9690324672310497 10.344470468952306 0 0 0
374 42 2 -0.55 8.782634586204512 4.5383750214697205 8.003697400258595 0 0 1
313 35 2 -0.55 8.21873496648377 4.325507256855824 10.517181000254434 0 0 0
164 19 1 1.1 9.038710094938333 5.225487166839369 9.457898240398638 0 0 0
564 63 2 -0.55 8.517482215490991 6.773621153274026 9.457592392449472 0 1 1
257 29 2 -0.55 10.619972524140154 5.294747378301478 9.631273879744674 -1 1 0
90 10 2 -0.55 10.697008817377652 6.333049188838258 12.534347869879443 0 0 -1
493 55 2 -0.55 10.744372932618784 2.302294127907503 8.700354775718885 0 0 0
506 57 1 1.1 12.155319847190219 2.4274674782790675 11.748009645693323 -1 1 0
145 17 1 1.1 11.8409194641544 6.286257472807708 9.509819435614473 0 -1 0
368 41 2 -0.55 10.965320029070693 1.3512387530887042 11.943608972080586 -1 0 0
357 40 2 -0.55 13.050219904042606 2.3386631576816668 10.380153511463556 0 0 0
521 58 2 -0.55 11.47262268095413 3.8875150148342184 12.027568688321699 0 1 0
388 44 1 1.1 9.825565496078527 1.2566891246767604 13.0929016035166 0 0 0
549 61 2 -0.55 8.555925862959214 2.3036209025582535 13.08806470883826 0 1 0
248 28 2 -0.55 13.26616586449839 2.321129245683697 12.949603355770583 0 0 0
523 59 1 1.1 11.853720380094517 5.266539074421712 12.620818357077333 0 0 1
450 50 2 -0.55 12.845377023867645 6.021305202523711 10.724611087016054 0 0 0
220 25 2 -0.55 13.766663455748144 1.8272844925069291 7.78308627450346 0 1 0
498 56 1 1.1 13.754153033456602 1.3256098079474588 9.319354315575179 0 0 0
429 48 2 -0.55 20.344680833974735 4.027945215986184 10.837974324230126 0 1 1
241 27 2 -0.55 16.353930022709577 5.317370462503699 7.822204004181648 0 0 0
546 61 2 -0.55 19.366388917148235 6.34987651670091 11.601884392311087 -1 1 1
163 19 1 1.1 19.010990560624606 4.837479034286011 11.148517510147876 0 0 0
287 32 2 -0.55 15.296609692767952 1.1358654342055425 9.703564899217747 0 0 0
67 8 2 -0.55 15.516018738568441 6.061574398095158 10.215641730835676 0 0 0
69 8 2 -0.55 15.967597613882814 3.5715167255770015 9.710734713124573 0 0 0
398 45 1 1.1 16.472283835749877 5.075918012798545 9.394347772925855 -1 1 0
466 52 2 -0.55 17.386193316990187 1.8588245556073857 8.371310075633865 0 0 0
173 20 1 1.1 16.570676282082765 2.108699127133584 9.713830145977688 0 0 0
18 2 2 -0.55 17.446346536364103 1.8792248278793497 10.986108345119424 -1 0 -1
195 22 2 -0.55 18.04351769466949 4.991459896242143 9.841719053722908 0 -1 0
394 44 2 -0.55 18.14779175110729 4.1470910463087645 12.345876920210761 0 0 0
455 51 2 -0.55 20.086490819106537 1.474528802416084 11.145060427106296 0 0 1
38 5 1 1.1 18.629841193099423 1.0276042555304175 11.600736961905081 -1 0 0
13 2 2 -0.55 18.57033809276095 1.0452022356156543 13.199963415874242 0 0 -1
360 40 2 -0.55 16.78286911797465 6.249739125802498 12.949527762832338 0 0 0
186 21 2 -0.55 15.685259736717729 3.7761854211052936 13.259865665448823 -1 0 0
538 60 2 -0.55 15.332990704606233 1.1199178277855895 13.263804571230263 0 1 0
462 52 1 1.1 14.244973696903049 6.804838754615319 10.946815481851615 0 0 0
254 29 1 1.1 17.058847854893422 4.667786373903091 13.39712142564073 -1 1 0
130 15 2 -0.55 0.21807967736171818 7.8110307436911555 7.198874376121691 0 0 0
431 48 2 -0.55 2.707327893189786 7.1634496985610925 7.70536930582943 0 0 0
391 44 2 -0.55 2.8711195375888847 7.52061569882263 12.325118185189845 1 1 0
263 30 1 1.1 4.272792246037867 7.496223641469323 8.081967667670863 0 1 0
349 39 2 -0.55 4.40664933130293 8.144595263949437 9.485416998709322 0 0 0
310 35 2 -0.55 3.7433162783099685 12.259098098396938 11.105916911180413 1 -1 0
425 48 1 1.1 4.848208676648763 12.16301241877136 9.993345750407629 1 0 0
323 36 2 -0.55 2.1586117692737976 10.74534986815279 8.409525588587039 0 -1 0
333 37 2 -0.55 5.284505965237743 10.630658838027765 9.93309759969543 0 0 0
280 32 1 1.1 5.5185956898528525 9.053636002647723 10.257689580865977 1 1 0
409 46 2 -0.55 1.8543154136147282 9.603985998642948 10.715100986969269 0 1 0
27 3 2 -0.55 5.498934438375306 8.535253147529128 11.789448268147456 0 0 -1
379 43 1 1.1 1.856636264946721 8.773757486447693 12.074586434423894 1 1 0
49 6 2 -0.55 0.42185839594809127 8.08805331123901 12.17470926283881 0 0 0
196 22 2 -0.55 0.653067079882773 12.111339280564982 10.087298746833206 0 0 0
348 39 2 -0.55 4.306440127850957 12.725795604158145 8.592178445744857 0 0 0
434 49 1 1.1 1.1354991223712894 10.633644171913286 9.650457376442333 0 -1 0
201 23 1 1.1 6.5365642537738635 8.062717036336078 12.949055638922346 0 0 0
274 31 2 -0.55 6.083673202539259 13.094980973492845 10.482815759915256 0 0 0
294 33 2 -0.55 2.1317909963643342 9.89417855177843 13.225110104232376 0 0 0
109 13 1 1.1 0.28292696841882886 13.471523807404067 9.328204000559497 0 0 -1
223 25 2 -0.55 20.675325471892577 9.850281903556942 9.001587352779438 -1 0 0
367 41 2 -0.55 1.9197554801525927 13.473265034492288 12.662489780178102 0 0 0
73 9 1 1.1 3.353446889406347 13.567200526806173 11.977468093824648 0 0 0
238 27 2 -0.55 6.861896727678889 8.701321423973303 9.517550562027532 0 0 0
529 59 2 -0.55 8.737078073174784 11.822150141450509 7.359052977506315 0 0 0
63 7 2 -0.55 8.39191388769087 8.522167681333089 7.438322734886964 0 0 0
441 49 2 -0.55 11.294413313658055 7.803424488854756 9.66737993533632 -1 -1 0
422 47 2 -0.55 7.345973927180175 11.545625255250151 11.88759264471138 0 0 0
215 24 2 -0.55 9.346816285863225 9.37051339664021 9.745350236851127 0 0 0
347 39 2 -0.55 11.737217333662024 10.390418463938465 9.582943465157532 0 0 1
416 47 1 1.1 8.335531855574144 8.37263689565567 9.020756554214206 0 0 0
227 26 1 1.1 10.863635455289582 9.239106312188214 10.197308180109882 0 0 0
439 49 2 -0.55 10.985879557816116 9.240752748641993 11.791036586637155 -1 0 0
353 40 1 1.1 12.52348415420478 10.38139110812211 8.160649573695778 0 0 0
432 48 2 -0.55 12.938793329178033 11.878746693404217 7.762680827964655 0 0 1
566 63 2 -0.55 8.622328460496924 12.68024103288028 9.886165600691635 0 0 0
228 26 1 1.1 7.548905505609902 12.902885308633799 11.08567010968367 0 0 0
569 64 1 1.1 9.187559578384372 12.999483412975739 8.399594147387614 0 0 0
571 64 2 -0.55 7.79485370770913 9.07335190586806 12.705429739690555 0 0 1
334 38 1 1.1 7.960697529426426 10.649010702694463 13.03710955973834 0 0 0
111 13 1 1.1 10.797280038590607 10.138904055648153 13.171274842913345 -1 0 -1
5 1 2 -0.55 10.789011329628213 13.0928635216935 8.288418146306732 -1 -1 0
19 3 1 1.1 12.33871248860145 13.391041910031863 7.9999285410447944 0 -1 0
252 28 2 -0.55 9.48149472910919 10.979479516191887 13.226753999117017 0 0 -1
499 56 2 -0.55 12.029010906248931 11.203528791140949 13.265373583657281 0 0 0
194 22 2 -0.55 14.43726029971995 7.20887986895415 12.44621853705043 0 0 1
108 12 2 -0.55 13.938722898325295 9.643229796150049 8.220447361303608 0 0 -1
373 42 2 -0.55 20.578112311508136 7.472882236660576 9.67245223844021 -1 0 0
351 39 2 -0.55 14.120577153491416 8.198396878814268 10.268737506933498 0 0 0
156 18 1 1.1 20.018680598139397 7.6894973315953905 11.15830492566598 -1 0 0
183 21 1 1.1 17.178360855262973 8.738976681501018 7.613638935800505 -1 0 -1
235 27 1 1.1 20.220851630034943 8.427917720286143 8.44525605017028 -1 0 0
511 57 2 -0.55 18.996797773429634 9.01136867651934 11.012519150367414 -1 0 0
64 8 1 1.1 15.63101362977574 11.013637434647313 11.784390914975482 0 0 0
572 64 2 -0.55 15.916648968044642 12.527663559273094 11.941937256737544 0 0 0
225 25 2 -0.55 14.901326541135008 10.689078041690161 10.383068733433213 -1 0 0
101 12 1 1.1 14.866071715307017 9.310777199382603 9.470353900895502 0 0 0
267 30 2 -0.55 18.67175375516331 8.350766948483765 7.992986438734202 -1 0 0
62 7 2 -0.55 19.187984247268986 11.594463237873105 11.950606054213502 0 0 -1
554 62 2 -0.55 16.374947378850095 8.873959816168135 9.015394611425425 -1 0 1
210 24 1 1.1 18.464175172557532 10.080009876478886 12.05199077375589 0 0 0
292 33 2 -0.55 16.89139626686756 10.13649126771517 11.944010607964287 -1 0 0
122 14 2 -0.55 14.563970818552319 10.666939424323523 13.006246786737552 0 0 -1
404 45 2 -0.55 20.070821974822124 13.139748861876948 8.11304844663415 -1 0 0
488 55 1 1.1 19.37281361386266 12.684832514278622 13.113348834056042 -1 0 0
408 46 1 1.1 6.361469508762271 18.99230128042083 7.544905204279463 -1 0 0
185 21 2 -0.55 5.277077868810551 17.87073561645477 7.79231112047606 -1 0 0
510 57 2 -0.55 3.2621160051808205 14.772984676266338 10.933800787023529 0 0 1
386 43 2 -0.55 2.6347130710791307 19.134926047094503 11.175901028510898 0 -1 0
116 13 2 -0.55 3.771025740484786 15.803111449910835 8.546697717314572 0 0 -1
175 20 2 -0.55 1.6194598927427908 14.275182997804452 8.955594552782845 1 0 0
167 19 2 -0.55 1.9247942985691138 16.72000310133416 10.096174947788802 0 -1 0
165 19 1 1.1 2.624654556107075 15.367528210332807 9.574782327396369 0 -1 -1
10 2 1 1.1 5.107341040405336 16.615614803648278 8.726950015424077 0 -1 0
344 39 1 1.1 1.4084826718587837 18.132898699774486 10.638030200282822 0 -1 0
94 11 2 -0.55 6.341687193075414 15.613806446189786 8.46500622939313 1 -1 0
369 41 2 -0.55 5.04769400649879 17.219627139771514 10.266778750116758 0 0 0
100 12 1 1.1 6.1456453479688316 17.56781393579335 11.404428357682464 0 0 -1
567 63 2 -0.55 5.5332381893907 17.41689853889053 12.923316169832507 0 0 0
375 42 2 -0.55 0.7998007585235254 18.840456319784057 9.397102572115875 0 0 0
321 36 2 -0.55 0.4165907746220716 17.80219952201182 11.897038167825285 1 0 0
212 24 2 -0.55 4.428069856642607 14.05619013278557 13.034009171600283 0 0 0
372 42 1 1.1 -0.006417977761760438 18.38187339355843 8.089912641483256 1 0 0
405 45 2 -0.55 6.766082481083113 18.945898726443144 11.1159831652997 0 0 0
551 62 1 1.1 7.156291639348407 14.718616108485493 7.394139209255739 0 0 0
61 7 2 -0.55 7.263905115199514 16.37940349244219 11.247973074956418 0 0 -1
486 54 2 -0.55 10.492178009447027 18.991725663811454 8.009339681694037 0 -1 0
56 7 1 1.1 10.871781706600684 17.47025567265779 7.623112404094773 0 0 -1
204 23 2 -0.55 8.598142752960296 14.403600148063042 7.909104367603905 0 0 0
40 5 2 -0.55 7.423168579660959 18.74552998546346 8.707242439343318 0 -1 0
326 37 1 1.1 7.987471692125133 19.264097756027123 10.131693474098434 0 -1 1
485 54 2 -0.55 12.90835300418239 14.177508802239215 9.283229933468418 0 0 0
176 20 2 -0.55 9.262059796354816 18.370356057432637 10.45275132175974 0 -1 0
424 48 1 1.1 8.385160585833384 15.672435873921321 12.096563569180462 0 0 0
202 23 2 -0.55 8.047475960749617 14.076246760212562 12.086819363944507 0 0 0
315 35 2 -0.55 9.804640706349177 15.90468802373868 11.410502484991863 0 0 0
522 58 2 -0.55 10.600919532787543 16.6518620784039 8.988165595705707 0 0 1
570 64 1 1.1 10.387623687592459 17.144578488303633 10.526041498591349 0 1 0
563 63 2 -0.55 11.718776800336439 17.74372379215769 11.188840728612748 -1 0 1
531 59 2 -0.55 13.122530907741108 14.799029242461042 11.908420228514801 0 0 0
74 9 1 1.1 13.161277328824536 18.01613956036906 10.611214212872975 -1 0 0
184 21 2 -0.55 13.116888702091527 19.107214992943934 9.394560631532121 -1 -1 1
213 24 2 -0.55 9.107428840823854 19.013795759881972 13.151077311425523 -1 -1 0
544 61 2 -0.55 13.701019639660412 16.59395074649273 10.04586074746454 -1 0 0
114 13 2 -0.55 14.992392098738177 17.099726298991865 7.0611233042702315 -1 0 0
390 44 1 1.1 13.664408769797868 15.046086170015013 10.456169361609264 0 0 0
268 30 2 -0.55 16.381282475973094 19.273987378471144 6.827230606704405 0 0 0
249 28 2 -0.55 20.60539151258949 19.798177915473662 7.289357206134772 0 0 0
46 6 1 1.1 16.493075056427216 17.728774450050146 7.24286155286493 -1 0 0
214 24 2 -0.55 17.747981948882853 13.963974523039303 10.696561036888758 0 0 0
84 10 1 1.1 16.347701141909425 14.004691380791625 11.481272272478389 -1 0 0
475 53 2 -0.55 14.19462189540647 18.529419560934297 11.692214534124913 -1 -1 0
270 30 2 -0.55 20.333576244934626 14.520048317362065 10.230644655635208 -1 0 0
144 16 2 -0.55 15.16847514992369 14.57520567679873 10.512694089482936 0 0 -1
482 54 2 -0.55 16.653070674693353 14.85167338342865 12.851211556871858 -1 0 1
426 48 1 1.1 19.076023877050638 14.867693774893478 11.09992954444072 0 0 0
23 3 2 -0.55 19.44716886623427 17.689382646950786 8.62331941108389 0 -1 0
418 47 2 -0.55 17.005229100731256 17.54564742882878 8.786570543536877 0 0 0
68 8 2 -0.55 18.55973321511086 16.387964135279958 10.73384247408617 0 0 0
120 14 1 1.1 18.288418483490794 17.642482873195583 9.770253209134115 0 0 0
4 1 2 -0.55 18.340747073115097 18.89026287820483 10.773101875020457 -1 -1 0
413 46 2 -0.55 19.38363202833108 14.242937441320384 12.611564173082096 -1 1 0
487 55 1 1.1 14.9656756389422 18.856805012234823 13.025100604497519 0 -1 0
242 27 2 -0.55 16.39611347578569 18.105401964367083 13.140474668269372 -1 0 0
82 10 1 1.1 6.046486373733491 5.373446654345041 13.774806281625581 0 1 0
342 38 2 -0.55 3.026774399273294 2.8063531664076007 17.62515774134703 1 0 -1
366 41 2 -0.55 0.892994634991133 2.7723699217896365 13.990059190325258 0 0 0
47 6 1 1.1 4.42279195525785 1.3279200043345536 13.897084979593798 0 0 -1
341 38 2 -0.55 6.024870042371219 1.4000457104079191 13.890166746166994 0 0 0
246 28 1 1.1 1.0462588251279799 4.351693007023306 14.223035536641122 1 0 0
427 48 2 -0.55 1.6901171252240041 4.829358360351602 15.656198248041303 1 1 0