ITEM: TIMESTEP
0
ITEM: NUMBER OF ATOMS
1600
ITEM: BOX BOUNDS pp pp pp
-3.0000000000000000e+01 3.0000000000000000e+01
-3.0000000000000000e+01 3.0000000000000000e+01
-5.0000000000000000e-01 5.0000000000000000e-01
ITEM: ATOMS id type xs ys zs
344 1 0.0439115 0.0198514 0.5
399 1 0.0598564 0.00655261 0.5
509 1 0.100494 0.0100725 0.5
1411 1 0.141667 0.00131665 0.5
1422 1 0.140062 0.0158076 0.5
273 1 0.164278 0.0186824 0.5
1108 1 0.14619 0.0152881 0.5
1130 1 0.194859 0.00244479 0.5
949 1 0.215744 0.0136269 0.5
1269 1 0.219255 0.0202249 0.5
243 1 0.253467 0.0178611 0.5
1007 1 0.246088 0.00357739 0.5
1019 1 0.373238 0.00824507 0.5
799 1 0.441483 0.0126392 0.5
834 1 0.442019 0.0102168 0.5
785 1 0.461832 0.00888486 0.5
1008 1 0.456715 0.0155726 0.5
117 1 0.487833 0.0040502 0.5
1510 2 0.559648 0.00415454 0.5
9 1 0.591778 0.0190472 0.5
852 1 0.591123 0.00756478 0.5
479 1 0.637056 0.00752356 0.5
67 1 0.653479 0.0135376 0.5
167 1 0.687511 0.00180177 0.5
965 1 0.680373 0.0218157 0.5
1088 1 0.825669 0.0145446 0.5
1406 1 0.850479 0.00291956 0.5
739 1 0.871721 0.00745698 0.5
1336 1 0.879872 0.00510815 0.5
151 1 0.892367 0.0164452 0.5
692 1 0.924021 0.0153434 0.5
1407 1 0.917237 0.000224744 0.5
525 1 0.933362 0.0153631 0.5
1242 1 0.938181 0.0121256 0.5
459 1 0.973523 0.00431303 0.5
971 1 0.97751 0.0101804 0.5
420 1 0.0149362 0.033228 0.5
1464 1 0.0216009 0.0456962 0.5
1564 2 0.0776477 0.0249332 0.5
752 1 0.0988892 0.0311846 0.5
665 1 0.130365 0.0374045 0.5
221 1 0.158568 0.0469763 0.5
172 1 0.175822 0.0352451 0.5
295 1 0.196528 0.0474329 0.5
1072 1 0.343252 0.0371717 0.5
1573 2 0.365147 0.0265897 0.5
431 1 0.394659 0.0386369 0.5
986 1 0.410426 0.0367216 0.5
792 1 0.43976 0.0439908 0.5
1308 1 0.517762 0.0241336 0.5
413 1 0.534898 0.0316501 0.5
1339 1 0.560959 0.0456209 0.5
738 1 0.575596 0.0345191 0.5
40 1 0.595289 0.026373 0.5
83 1 0.612783 0.0368556 0.5
552 1 0.653837 0.0453204 0.5
1456 1 0.704411 0.0435717 0.5
284 1 0.736838 0.0350804 0.5
1333 1 0.728092 0.0360728 0.5
64 1 0.756115 0.0261922 0.5
595 1 0.740825 0.0469819 0.5
164 1 0.773073 0.0321552 0.5
630 1 0.773371 0.0459387 0.5
38 1 0.82097 0.0353418 0.5
847 1 0.818292 0.0351508 0.5
1346 1 0.832869 0.02578 0.5
647 1 0.869342 0.0388622 0.5
1158 1 0.891179 0.041829 0.5
135 1 0.916109 0.045901 0.5
349 1 0.940384 0.0408386 0.5
415 1 0.94318 0.0257969 0.5
1361 1 0.951153 0.0326949 0.5
384 1 0.975251 0.0398534 0.5
791 1 0.953593 0.0318581 0.5
1290 1 0.996849 0.0468482 0.5
1600 2 0.0335606 0.0522788 0.5
1040 1 0.0799101 0.0498022 0.5
234 1 0.10502 0.0674803 0.5
1024 1 0.182248 0.0501134 0.5
804 1 0.204025 0.0488161 0.5
1382 1 0.212356 0.0653484 0.5
418 1 0.216104 0.0618685 0.5
1232 1 0.227052 0.0645996 0.5
1237 1 0.236809 0.0486207 0.5
474 1 0.253708 0.0701908 0.5
322 1 0.282445 0.0488443 0.5
890 1 0.269474 0.0524976 0.5
1431 1 0.267987 0.0614683 0.5
1369 1 0.333258 0.0631893 0.5
923 1 0.356939 0.0704431 0.5
1080 1 0.355569 0.0535059 0.5
1449 1 0.411737 0.0693833 0.5
947 1 0.49569 0.0564613 0.5
755 1 0.519013 0.0484459 0.5
1029 1 0.508303 0.0509689 0.5
386 1 0.613319 0.051072 0.5
56 1 0.663001 0.0535303 0.5
76 1 0.65485 0.0708823 0.5
249 1 0.779441 0.071404 0.5
842 1 0.774324 0.0690444 0.5
1131 1 0.776109 0.0603489 0.5
1559 2 0.774859 0.0550781 0.5
153 1 0.795208 0.0607702 0.5
405 1 0.820911 0.0511289 0.5
1016 1 0.844711 0.0651421 0.5
1379 1 0.878031 0.0623129 0.5
1167 1 0.889396 0.0707088 0.5
1428 1 0.902782 0.0555807 0.5
809 1 0.927296 0.0680518 0.5
96 1 0.975133 0.0590776 0.5
100 1 0.966387 0.0582934 0.5
816 1 0.962044 0.0667484 0.5
1486 1 0.980667 0.0626567 0.5
74 1 0.00857269 0.0812432 0.5
1217 1 0.0142851 0.0900933 0.5
841 1 0.0401666 0.0805263 0.5
1466 1 0.0368351 0.0876049 0.5
388 1 0.0559932 0.077741 0.5
1137 1 0.107519 0.0762295 0.5
306 1 0.119182 0.0929774 0.5
1121 1 0.177074 0.085627 0.5
1558 2 0.180882 0.0887278 0.5
581 1 0.208311 0.0862798 0.5
675 1 0.21069 0.07383 0.5
101 1 0.225387 0.086386 0.5
368 1 0.275486 0.0914099 0.5
849 1 0.343434 0.0923045 0.5
1012 1 0.401623 0.0769881 0.5
1364 1 0.414892 0.0869148 0.5
1262 1 0.444522 0.0831579 0.5
429 1 0.47213 0.084533 0.5
588 1 0.485398 0.0923623 0.5
860 1 0.50658 0.0920487 0.5
887 1 0.527344 0.0742054 0.5
259 1 0.588213 0.0877246 0.5
877 1 0.575003 0.0796905 0.5
1226 1 0.575242 0.0886073 0.5
1483 1 0.617962 0.0948358 0.5
979 1 0.6229 0.0742837 0.5
1002 1 0.659372 0.0735838 0.5
3 1 0.684124 0.0751397 0.5
1015 1 0.68234 0.0922956 0.5
364 1 0.699594 0.0823801 0.5
1219 1 0.724048 0.0788242 0.5
1331 1 0.72393 0.0948552 0.5
1490 1 0.744397 0.075602 0.5
994 1 0.773552 0.085677 0.5
1247 1 0.775455 0.0757344 0.5
1570 2 0.77254 0.0805027 0.5
823 1 0.855005 0.0756436 0.5
531 1 0.868215 0.0821906 0.5
498 1 0.881126 0.0785309 0.5
1349 1 0.902606 0.0948965 0.5
1475 1 0.981144 0.0821494 0.5
434 1 0.00345703 0.102261 0.5
848 1 0.0113105 0.0956221 0.5
650 1 0.0671215 0.110725 0.5
220 1 0.0770574 0.103664 0.5
4 1 0.100857 0.0964912 0.5
392 1 0.15988 0.0961281 0.5
618 1 0.163986 0.11266 0.5
1330 1 0.18957 0.11012 0.5
212 1 0.277986 0.11679 0.5
1004 1 0.283044 0.113524 0.5
1118 1 0.268823 0.115726 0.5
19 1 0.340936 0.113202 0.5
1432 1 0.367294 0.103608 0.5
251 1 0.385976 0.0968935 0.5
505 1 0.403528 0.101669 0.5
574 1 0.412573 0.106697 0.5
1036 1 0.428637 0.110261 0.5
1246 1 0.433635 0.105986 0.5
1150 1 0.460886 0.107096 0.5
833 1 0.484745 0.102449 0.5
1070 1 0.493194 0.11264 0.5
121 1 0.509973 0.114239 0.5
1257 1 0.503309 0.108846 0.5
920 1 0.546088 0.108343 0.5
1066 1 0.536271 0.106189 0.5
189 1 0.591189 0.107671 0.5
864 1 0.610823 0.107931 0.5
1387 1 0.610585 0.100087 0.5
1470 1 0.605171 0.115977 0.5
1275 1 0.658184 0.103867 0.5
33 1 0.671572 0.107585 0.5
1095 1 0.686685 0.113017 0.5
473 1 0.708342 0.0985587 0.5
1180 1 0.713875 0.103719 0.5
1371 1 0.707331 0.113553 0.5
763 1 0.731427 0.0973185 0.5
872 1 0.730356 0.0970135 0.5
1185 1 0.760939 0.100412 0.5
1270 1 0.769627 0.115872 0.5
904 1 0.891599 0.100111 0.5
13 1 0.964665 0.11854 0.5
1048 1 0.965973 0.101387 0.5
228 1 0.998876 0.111747 0.5
395 1 0.993402 0.109841 0.5
1294 1 0.981919 0.115927 0.5
1187 1 0.0351713 0.124426 0.5
454 1 0.116924 0.138726 0.5
916 1 0.101453 0.127267 0.5
75 1 0.145304 0.130723 0.5
1511 2 0.153634 0.119613 0.5
144 1 0.205101 0.128567 0.5
481 1 0.211111 0.140768 0.5
36 1 0.243894 0.11984 0.5
162 1 0.261328 0.138534 0.5
375 1 0.261387 0.139675 0.5
1157 1 0.252165 0.138017 0.5
174 1 0.332786 0.13125 0.5
1213 1 0.32648 0.142081 0.5
499 1 0.356823 0.124432 0.5
132 1 0.440241 0.122933 0.5
1289 1 0.429709 0.122486 0.5
1532 2 0.461422 0.127847 0.5
955 1 0.491173 0.141626 0.5
1085 1 0.489923 0.128827 0.5
160 1 0.522885 0.124667 0.5
1022 1 0.579766 0.131982 0.5
539 1 0.597318 0.124659 0.5
871 1 0.598985 0.137723 0.5
178 1 0.630994 0.119325 0.5
1288 1 0.635636 0.132104 0.5
298 1 0.690375 0.140821 0.5
516 1 0.702869 0.119107 0.5
476 1 0.773674 0.139895 0.5
1193 1 0.780516 0.138429 0.5
711 1 0.787656 0.14205 0.5
237 1 0.829067 0.12936 0.5
863 1 0.844418 0.133246 0.5
1176 1 0.880415 0.134991 0.5
1218 1 0.87256 0.119825 0.5
1325 1 0.864826 0.12312 0.5
779 1 0.883568 0.130154 0.5
179 1 0.914388 0.126481 0.5
223 1 0.910343 0.139147 0.5
565 1 0.942592 0.137297 0.5
180 1 0.965082 0.135099 0.5
224 1 0.0222027 0.161036 0.5
1152 1 0.0176214 0.162546 0.5
163 1 0.0671236 0.146804 0.5
278 1 0.124481 0.153772 0.5
49 1 0.176008 0.158076 0.5
941 1 0.207007 0.161434 0.5
1087 1 0.213908 0.15592 0.5
1487 1 0.197248 0.152666 0.5
31 1 0.254904 0.165544 0.5
613 1 0.257521 0.148793 0.5
857 1 0.267397 0.145552 0.5
1437 1 0.353969 0.161765 0.5
670 1 0.380505 0.147699 0.5
1090 1 0.364262 0.148466 0.5
547 1 0.387884 0.164401 0.5
807 1 0.388597 0.149538 0.5
952 1 0.402341 0.147574 0.5
1468 1 0.439886 0.161822 0.5
1340 1 0.467374 0.15535 0.5
417 1 0.567512 0.165939 0.5
715 1 0.560193 0.162392 0.5
1409 1 0.582861 0.147934 0.5
856 1 0.672823 0.14359 0.5
1359 1 0.733514 0.164329 0.5
835 1 0.763084 0.147855 0.5
615 1 0.804674 0.158312 0.5
728 1 0.792358 0.166325 0.5
136 1 0.836863 0.162473 0.5
1078 1 0.83716 0.156158 0.5
1231 1 0.873811 0.146141 0.5
533 1 0.884581 0.146998 0.5
573 1 0.92385 0.153138 0.5
95 1 0.940035 0.160473 0.5
301 1 0.951935 0.163496 0.5
1567 2 0.943723 0.15193 0.5
23 1 0.974245 0.143567 0.5
542 1 0.0377336 0.189015 0.5
940 1 0.0963983 0.167012 0.5
1366 1 0.112523 0.177807 0.5
45 1 0.121864 0.16773 0.5
749 1 0.124779 0.168691 0.5
1062 1 0.13549 0.181327 0.5
1334 1 0.147212 0.189621 0.5
1463 1 0.152447 0.178814 0.5
43 1 0.20915 0.184107 0.5
722 1 0.228249 0.174009 0.5
747 1 0.235805 0.182646 0.5
1370 1 0.227059 0.183873 0.5
993 1 0.286379 0.178871 0.5
1572 2 0.291021 0.186171 0.5
188 1 0.346175 0.169083 0.5
1202 1 0.359682 0.182057 0.5
1421 1 0.365513 0.174837 0.5
550 1 0.389193 0.168433 0.5
1273 1 0.427749 0.171984 0.5
304 1 0.469934 0.17878 0.5
953 1 0.467197 0.183584 0.5
1174 1 0.459819 0.170427 0.5
939 1 0.525327 0.174475 0.5
1469 1 0.542166 0.188635 0.5
766 1 0.588337 0.185958 0.5
181 1 0.619276 0.171443 0.5
865 1 0.639208 0.168011 0.5
557 1 0.665745 0.180296 0.5
1494 1 0.672291 0.190137 0.5
1514 2 0.66997 0.18248 0.5
1355 1 0.708167 0.167873 0.5
1104 1 0.797892 0.167149 0.5
671 1 0.817705 0.172282 0.5
596 1 0.853047 0.166849 0.5
627 1 0.841803 0.17818 0.5
113 1 0.875955 0.179582 0.5
379 1 0.871017 0.180459 0.5
1006 1 0.876848 0.182192 0.5
1280 1 0.858878 0.168465 0.5
1461 1 0.859177 0.186842 0.5
1198 1 0.881429 0.173482 0.5
1201 1 0.892257 0.167575 0.5
1547 2 0.910881 0.18182 0.5
428 1 0.934145 0.170965 0.5
1574 2 0.955446 0.186521 0.5
1445 1 0.0210147 0.193581 0.5
149 1 0.0246441 0.192577 0.5
233 1 0.0484439 0.197003 0.5
410 1 0.0877733 0.206594 0.5
378 1 0.100981 0.193207 0.5
416 1 0.137336 0.21069 0.5
165 1 0.184043 0.212651 0.5
942 1 0.190707 0.206359 0.5
995 1 0.19511 0.206003 0.5
866 1 0.23295 0.194167 0.5
297 1 0.266746 0.203505 0.5
1473 1 0.278051 0.209719 0.5
343 1 0.293699 0.199769 0.5
350 1 0.30078 0.211649 0.5
1239 1 0.331541 0.210481 0.5
93 1 0.336836 0.198718 0.5
370 1 0.341478 0.214228 0.5
376 1 0.344333 0.21303 0.5
948 1 0.354151 0.208547 0.5
408 1 0.375331 0.191625 0.5
299 1 0.419063 0.191257 0.5
888 1 0.414958 0.205835 0.5
1347 1 0.4456 0.206102 0.5
898 1 0.510335 0.194217 0.5
361 1 0.535741 0.201965 0.5
323 1 0.552104 0.209021 0.5
973 1 0.593157 0.193607 0.5
11 1 0.612971 0.208828 0.5
99 1 0.599405 0.199182 0.5
724 1 0.637128 0.211556 0.5
564 1 0.689605 0.198417 0.5
1381 1 0.75803 0.209271 0.5
862 1 0.807889 0.193686 0.5
610 1 0.896603 0.198604 0.5
775 1 0.884346 0.195589 0.5
924 1 0.914214 0.197994 0.5
733 1 0.981806 0.212577 0.5
1207 1 0.0299414 0.224313 0.5
1049 1 0.120856 0.232218 0.5
743 1 0.17488 0.214623 0.5
751 1 0.182378 0.228114 0.5
1491 1 0.187733 0.235258 0.5
1353 1 0.231406 0.237035 0.5
1127 1 0.242293 0.226353 0.5
523 1 0.318868 0.220983 0.5
1358 1 0.403655 0.234003 0.5
133 1 0.447923 0.234617 0.5
203 1 0.431382 0.230742 0.5
580 1 0.440663 0.224917 0.5
819 1 0.450064 0.228112 0.5
266 1 0.473625 0.22208 0.5
17 1 0.60244 0.214321 0.5
262 1 0.607855 0.216087 0.5
1321 1 0.639926 0.23682 0.5
962 1 0.730006 0.217884 0.5
1477 1 0.730423 0.222946 0.5
1153 1 0.761719 0.215748 0.5
1539 2 0.761185 0.234011 0.5
1129 1 0.813603 0.220161 0.5
1260 1 0.819374 0.225347 0.5
1319 1 0.825979 0.221812 0.5
1010 1 0.833357 0.235939 0.5
537 1 0.899163 0.237961 0.5
713 1 0.918441 0.231835 0.5
1433 1 0.919036 0.233395 0.5
288 1 0.936826 0.234863 0.5
640 1 0.959733 0.233924 0.5
768 1 0.983294 0.217553 0.5
578 1 0.0630833 0.240584 0.5
703 1 0.0594537 0.238747 0.5
836 1 0.0566573 0.239897 0.5
1512 2 0.0664163 0.258174 0.5
337 1 0.0921791 0.253517 0.5
450 1 0.0989022 0.24936 0.5
1265 1 0.139065 0.261218 0.5
1041 1 0.151559 0.24467 0.5
654 1 0.178036 0.251556 0.5
467 1 0.19059 0.240516 0.5
1520 2 0.221947 0.257422 0.5
16 1 0.333923 0.245842 0.5
305 1 0.375929 0.23839 0.5
1253 1 0.402943 0.257185 0.5
514 1 0.493975 0.242994 0.5
741 1 0.48767 0.26151 0.5
1169 1 0.481838 0.257359 0.5
139 1 0.523309 0.253973 0.5
1550 2 0.536993 0.249271 0.5
69 1 0.566505 0.24446 0.5
1534 2 0.565375 0.257641 0.5
1196 1 0.576501 0.249317 0.5
810 1 0.639867 0.240726 0.5
893 1 0.636297 0.24043 0.5
1523 2 0.637666 0.256632 0.5
642 1 0.688122 0.260341 0.5
1204 1 0.700318 0.251453 0.5
1489 1 0.69526 0.240475 0.5
426 1 0.716858 0.240231 0.5
72 1 0.783616 0.241292 0.5
832 1 0.765351 0.258446 0.5
1430 1 0.779988 0.251015 0.5
521 1 0.812712 0.251729 0.5
619 1 0.838356 0.252999 0.5
1046 1 0.856742 0.257803 0.5
1446 1 0.946346 0.238479 0.5
1485 1 0.947179 0.239126 0.5
190 1 0.975502 0.257085 0.5
50 1 0.990853 0.261682 0.5
328 1 0.996682 0.242731 0.5
206 1 0.0319081 0.279656 0.5
229 1 0.0481506 0.267814 0.5
867 1 0.09807 0.262848 0.5
1394 1 0.118895 0.265587 0.5
461 1 0.133532 0.265567 0.5
1502 2 0.1374 0.284468 0.5
204 1 0.155012 0.281299 0.5
145 1 0.187676 0.276754 0.5
508 1 0.248901 0.279731 0.5
859 1 0.257468 0.269187 0.5
1233 1 0.282221 0.285542 0.5
232 1 0.294655 0.262108 0.5
707 1 0.297927 0.264673 0.5
601 1 0.323572 0.269997 0.5
85 1 0.33916 0.264901 0.5
1315 1 0.372242 0.263947 0.5
6 1 0.40455 0.279971 0.5
445 1 0.404193 0.277959 0.5
664 1 0.434657 0.278825 0.5
1519 2 0.437156 0.28201 0.5
797 1 0.452685 0.278002 0.5
1181 1 0.458753 0.266512 0.5
24 1 0.490228 0.264952 0.5
241 1 0.481304 0.268007 0.5
315 1 0.490527 0.284214 0.5
81 1 0.641237 0.277879 0.5
440 1 0.641595 0.283796 0.5
880 1 0.631302 0.28559 0.5
271 1 0.642903 0.272035 0.5
522 1 0.657421 0.271533 0.5
519 1 0.688301 0.272193 0.5
730 1 0.673367 0.283873 0.5
1220 1 0.751191 0.266665 0.5
414 1 0.828302 0.276615 0.5
1395 1 0.853589 0.263219 0.5
1594 2 0.855969 0.270468 0.5
65 1 0.876377 0.263761 0.5
786 1 0.915408 0.262723 0.5
198 1 0.934627 0.278912 0.5
1258 1 0.974491 0.267383 0.5
1378 1 0.987224 0.273636 0.5
507 1 0.069988 0.287694 0.5
813 1 0.0573147 0.288531 0.5
687 1 0.073916 0.30603 0.5
1380 1 0.0828406 0.301582 0.5
1140 1 0.103368 0.305376 0.5
593 1 0.125918 0.296134 0.5
331 1 0.163937 0.291228 0.5
1286 1 0.161676 0.292679 0.5
1415 1 0.153049 0.287196 0.5
972 1 0.244975 0.300449 0.5
109 1 0.275319 0.289186 0.5
471 1 0.299476 0.294019 0.5
930 1 0.338032 0.304018 0.5
1228 1 0.383251 0.304455 0.5
208 1 0.428411 0.295986 0.5
1115 1 0.419962 0.29849 0.5
1144 1 0.440429 0.297919 0.5
737 1 0.616726 0.308876 0.5
71 1 0.661647 0.307933 0.5
892 1 0.670512 0.302133 0.5
983 1 0.694668 0.290194 0.5
1025 1 0.693776 0.285972 0.5
73 1 0.851033 0.306187 0.5
1452 1 0.848533 0.293713 0.5
556 1 0.8596 0.300182 0.5
874 1 0.89048 0.295928 0.5
435 1 0.907497 0.300888 0.5
1119 1 0.913863 0.288561 0.5
883 1 0.969733 0.298982 0.5
401 1 0.0392879 0.311988 0.5
1248 1 0.0370274 0.319387 0.5
1480 1 0.0420843 0.310564 0.5
617 1 0.0504747 0.328495 0.5
607 1 0.0846271 0.327644 0.5
969 1 0.104737 0.31894 0.5
374 1 0.132583 0.322705 0.5
909 1 0.147993 0.310123 0.5
1508 2 0.188929 0.323239 0.5
1297 1 0.236706 0.322351 0.5
1479 1 0.234862 0.322595 0.5
1583 2 0.259613 0.313131 0.5
110 1 0.263898 0.326169 0.5
55 1 0.315067 0.331795 0.5
928 1 0.325122 0.323315 0.5
756 1 0.34672 0.317772 0.5
1064 1 0.350885 0.331071 0.5
1211 1 0.361476 0.319753 0.5
661 1 0.424485 0.319842 0.5
1212 1 0.415917 0.311674 0.5
1546 2 0.439241 0.316353 0.5
1209 1 0.474464 0.313567 0.5
423 1 0.478392 0.326793 0.5
1320 1 0.510996 0.318078 0.5
175 1 0.544673 0.32032 0.5
201 1 0.526585 0.315588 0.5
1263 1 0.564903 0.316498 0.5
195 1 0.579183 0.327796 0.5
884 1 0.606552 0.325545 0.5
1023 1 0.61036 0.312789 0.5
602 1 0.650999 0.332486 0.5
1391 1 0.692469 0.319208 0.5
1497 1 0.696931 0.314609 0.5
327 1 0.715435 0.314668 0.5
677 1 0.737748 0.322703 0.5
1345 1 0.749766 0.319267 0.5
107 1 0.765236 0.316067 0.5
1496 1 0.773626 0.331823 0.5
1581 2 0.797127 0.311367 0.5
48 1 0.867575 0.332156 0.5
90 1 0.864956 0.311208 0.5
1398 1 0.878165 0.311635 0.5
762 1 0.897324 0.332388 0.5
1208 1 0.923503 0.319738 0.5
260 1 0.951052 0.323385 0.5
616 1 0.930941 0.328261 0.5
700 1 0.930108 0.318308 0.5
803 1 0.92987 0.330257 0.5
850 1 0.951825 0.328588 0.5
1162 1 0.930881 0.31772 0.5
286 1 0.0682061 0.339168 0.5
302 1 0.0959334 0.353384 0.5
1170 1 0.11051 0.34107 0.5
1541 2 0.1759 0.350059 0.5
1579 2 0.194107 0.353326 0.5
544 1 0.232661 0.336262 0.5
759 1 0.236409 0.334058 0.5
587 1 0.248429 0.344396 0.5
280 1 0.266636 0.355293 0.5
623 1 0.27086 0.349979 0.5
34 1 0.325005 0.350914 0.5
839 1 0.319292 0.346384 0.5
917 1 0.322445 0.338198 0.5
1241 1 0.333096 0.337327 0.5
1277 1 0.336964 0.353059 0.5
363 1 0.380517 0.34929 0.5
742 1 0.392238 0.346706 0.5
1373 1 0.410505 0.356991 0.5
1420 1 0.418477 0.33753 0.5
1166 1 0.439658 0.33382 0.5
1588 2 0.444478 0.333627 0.5
427 1 0.468872 0.335276 0.5
1495 1 0.467148 0.34948 0.5
1323 1 0.490531 0.354174 0.5
348 1 0.590846 0.353372 0.5
1117 1 0.650344 0.33913 0.5
264 1 0.672538 0.339983 0.5
1313 1 0.666886 0.347106 0.5
254 1 0.7127 0.341471 0.5
187 1 0.723528 0.341293 0.5
458 1 0.73412 0.347977 0.5
652 1 0.782194 0.33697 0.5
894 1 0.821345 0.352631 0.5
1493 1 0.921304 0.352494 0.5
1293 1 0.952481 0.343608 0.5
114 1 0.980208 0.347539 0.5
460 1 0.987526 0.346179 0.5
641 1 0.0186452 0.369343 0.5
873 1 0.0151351 0.375737 0.5
960 1 0.0112671 0.365946 0.5
548 1 0.042445 0.373292 0.5
106 1 0.108846 0.366974 0.5
248 1 0.325125 0.371119 0.5
1264 1 0.317806 0.35843 0.5
1332 1 0.313225 0.375523 0.5
1171 1 0.336965 0.369956 0.5
901 1 0.450727 0.365693 0.5
1097 1 0.578888 0.365917 0.5
339 1 0.598939 0.371889 0.5
1065 1 0.68081 0.371747 0.5
412 1 0.75566 0.378515 0.5
385 1 0.775472 0.36556 0.5
1192 1 0.794513 0.380274 0.5
488 1 0.827117 0.35766 0.5
20 1 0.85782 0.375026 0.5
821 1 0.87091 0.377005 0.5
227 1 0.892805 0.368286 0.5
171 1 0.91839 0.380115 0.5
154 1 0.966048 0.362418 0.5
283 1 0.996749 0.357472 0.5
805 1 0.0436364 0.396447 0.5
1425 1 0.0260242 0.387963 0.5
159 1 0.0702324 0.395113 0.5
734 1 0.05744 0.393362 0.5
878 1 0.126101 0.385656 0.5
1074 1 0.133122 0.38809 0.5
1575 2 0.213981 0.383642 0.5
44 1 0.230939 0.386718 0.5
817 1 0.217075 0.38337 0.5
1037 1 0.215529 0.399879 0.5
1589 2 0.243196 0.393364 0.5
691 1 0.326851 0.389355 0.5
1092 1 0.326792 0.392103 0.5
502 1 0.340299 0.403668 0.5
1585 2 0.347438 0.394596 0.5
555 1 0.377306 0.381387 0.5
869 1 0.459951 0.39184 0.5
1147 1 0.523436 0.390541 0.5
463 1 0.534027 0.389382 0.5
1189 1 0.52885 0.382586 0.5
365 1 0.578949 0.388095 0.5
1060 1 0.580199 0.40246 0.5
1341 1 0.574546 0.387176 0.5
169 1 0.616374 0.400476 0.5
1538 2 0.615898 0.390727 0.5
308 1 0.689081 0.381511 0.5
634 1 0.685095 0.397847 0.5
1412 1 0.675992 0.402768 0.5
974 1 0.697055 0.39654 0.5
1312 1 0.701219 0.393286 0.5
757 1 0.721806 0.389933 0.5
1522 2 0.718713 0.401029 0.5
1416 1 0.743642 0.383086 0.5
1427 1 0.742929 0.403662 0.5
1324 1 0.828071 0.392169 0.5
625 1 0.84366 0.386368 0.5
758 1 0.849074 0.390521 0.5
270 1 0.876742 0.402891 0.5
515 1 0.867221 0.386659 0.5
638 1 0.91613 0.391811 0.5
28 1 0.934396 0.398527 0.5
334 1 0.942845 0.397393 0.5
532 1 0.955994 0.385182 0.5
624 1 0.0707092 0.409973 0.5
982 1 0.0504803 0.422435 0.5
693 1 0.101768 0.422393 0.5
94 1 0.130446 0.413085 0.5
293 1 0.149368 0.419967 0.5
954 1 0.166444 0.428283 0.5
956 1 0.157103 0.425555 0.5
309 1 0.188398 0.410076 0.5
1310 1 0.244328 0.414478 0.5
150 1 0.27372 0.419445 0.5
245 1 0.305136 0.425557 0.5
1163 1 0.291273 0.423462 0.5
39 1 0.338158 0.421208 0.5
447 1 0.35684 0.410987 0.5
636 1 0.337622 0.415272 0.5
263 1 0.362671 0.41967 0.5
406 1 0.43526 0.415218 0.5
1417 1 0.433594 0.421359 0.5
1598 2 0.45906 0.422868 0.5
1413 1 0.511835 0.406404 0.5
1556 2 0.54105 0.424257 0.5
148 1 0.562172 0.416478 0.5
778 1 0.58246 0.406809 0.5
886 1 0.573357 0.419361 0.5
1578 2 0.591445 0.423052 0.5
1031 1 0.677242 0.412398 0.5
1110 1 0.681169 0.405439 0.5
1484 1 0.683549 0.416093 0.5
754 1 0.71556 0.409755 0.5
216 1 0.792313 0.405258 0.5
740 1 0.807962 0.416642 0.5
975 1 0.813138 0.410321 0.5
1530 2 0.933327 0.423157 0.5
1386 1 0.973667 0.41928 0.5
540 1 0.999728 0.424118 0.5
561 1 0.996157 0.415126 0.5
997 1 0.992231 0.424354 0.5
1133 1 0.98759 0.421585 0.5
1453 1 0.0134732 0.443519 0.5
787 1 0.109505 0.448752 0.5
746 1 0.145798 0.431128 0.5
1059 1 0.182986 0.445415 0.5
504 1 0.196491 0.429643 0.5
1344 1 0.231894 0.442248 0.5
1261 1 0.257657 0.446591 0.5
938 1 0.284551 0.442418 0.5
287 1 0.322094 0.429211 0.5
318 1 0.331733 0.430617 0.5
543 1 0.373917 0.431066 0.5
708 1 0.423243 0.443941 0.5
22 1 0.491608 0.448239 0.5
1039 1 0.484169 0.431593 0.5
1384 1 0.499997 0.450494 0.5
1186 1 0.525581 0.431871 0.5
425 1 0.570622 0.437985 0.5
1112 1 0.559912 0.435719 0.5
1350 1 0.558127 0.433074 0.5
1357 1 0.653741 0.432227 0.5
934 1 0.692178 0.438676 0.5
1374 1 0.693428 0.445724 0.5
649 1 0.753582 0.45234 0.5
790 1 0.738349 0.433965 0.5
1203 1 0.752867 0.428814 0.5
1061 1 0.79773 0.443142 0.5
801 1 0.847054 0.44391 0.5
1035 1 0.853718 0.432868 0.5
173 1 0.888822 0.437943 0.5
1545 2 0.892213 0.428727 0.5
398 1 0.915835 0.447001 0.5
1199 1 0.910361 0.443014 0.5
41 1 0.974144 0.431447 0.5
1005 1 0.974025 0.444074 0.5
214 1 0.987651 0.442629 0.5
1424 1 0.982355 0.440625 0.5
1513 2 0.0196029 0.466557 0.5
546 1 0.062977 0.454395 0.5
628 1 0.0630965 0.462313 0.5
906 1 0.0935004 0.46091 0.5
1161 1 0.0931433 0.45954 0.5
1402 1 0.0767817 0.469373 0.5
622 1 0.153595 0.470298 0.5
659 1 0.217675 0.468829 0.5
1249 1 0.23017 0.467988 0.5
449 1 0.262299 0.453281 0.5
968 1 0.28711 0.465887 0.5
1540 2 0.299367 0.461498 0.5
1134 1 0.349644 0.462894 0.5
485 1 0.361306 0.469914 0.5
1351 1 0.395636 0.46088 0.5
394 1 0.436394 0.465962 0.5
1439 1 0.51279 0.464282 0.5
10 1 0.600372 0.453354 0.5
1576 2 0.632561 0.460739 0.5
1013 1 0.645592 0.461068 0.5
88 1 0.707471 0.465385 0.5
1081 1 0.708721 0.468464 0.5
252 1 0.730259 0.458203 0.5
933 1 0.739422 0.463932 0.5
1335 1 0.801182 0.470826 0.5
987 1 0.8536 0.461719 0.5
1580 2 0.853481 0.461432 0.5
943 1 0.887217 0.454297 0.5
1191 1 0.995089 0.468377 0.5
1500 1 0.998184 0.47165 0.5
18 1 0.00800167 0.484119 0.5
130 1 0.00931057 0.482767 0.5
764 1 0.00954951 0.498555 0.5
1442 1 0.0130593 0.487419 0.5
896 1 0.0713096 0.499689 0.5
922 1 0.0885042 0.489963 0.5
1084 1 0.156274 0.49198 0.5
1301 1 0.144492 0.47997 0.5
1352 1 0.154845 0.477705 0.5
218 1 0.206252 0.477214 0.5
244 1 0.199411 0.493692 0.5
732 1 0.202743 0.497781 0.5
453 1 0.264918 0.482306 0.5
510 1 0.28021 0.482272 0.5
991 1 0.2767 0.499521 0.5
14 1 0.290979 0.48597 0.5
1051 1 0.305972 0.476433 0.5
1365 1 0.285863 0.495436 0.5
1599 2 0.304545 0.495506 0.5
108 1 0.333461 0.478108 0.5
235 1 0.339412 0.494717 0.5
371 1 0.352025 0.477986 0.5
433 1 0.353631 0.483851 0.5
372 1 0.388558 0.490793 0.5
1549 2 0.435323 0.480371 0.5
789 1 0.469179 0.490615 0.5
1555 2 0.463407 0.481751 0.5
457 1 0.492919 0.49696 0.5
1454 1 0.56283 0.478895 0.5
240 1 0.579847 0.488597 0.5
1507 2 0.638989 0.488161 0.5
697 1 0.67802 0.487389 0.5
988 1 0.672189 0.488035 0.5
800 1 0.860028 0.482339 0.5
1348 1 0.894716 0.486884 0.5
1506 2 0.941184 0.478715 0.5
213 1 0.98218 0.499045 0.5
1303 1 0.977776 0.47658 0.5
404 1 0.0513779 0.507926 0.5
925 1 0.0544125 0.511436 0.5
443 1 0.072144 0.5234 0.5
470 1 0.0976688 0.520173 0.5
1450 1 0.111353 0.516057 0.5
767 1 0.226721 0.506453 0.5
868 1 0.219523 0.518125 0.5
1471 1 0.222676 0.50785 0.5
646 1 0.23874 0.502977 0.5
633 1 0.306093 0.50765 0.5
1266 1 0.33965 0.500323 0.5
626 1 0.422116 0.510216 0.5
1124 1 0.425745 0.500517 0.5
492 1 0.452223 0.511755 0.5
125 1 0.472571 0.508963 0.5
222 1 0.45502 0.52182 0.5
316 1 0.472096 0.51864 0.5
1282 1 0.456745 0.512273 0.5
314 1 0.541531 0.515275 0.5
769 1 0.615667 0.512103 0.5
1148 1 0.631851 0.522153 0.5
1304 1 0.623878 0.509636 0.5
353 1 0.648807 0.50488 0.5
637 1 0.705749 0.522516 0.5
806 1 0.707117 0.518534 0.5
772 1 0.74591 0.505918 0.5
959 1 0.739186 0.502201 0.5
1238 1 0.741685 0.506403 0.5
282 1 0.769293 0.511049 0.5
1021 1 0.817309 0.510758 0.5
1302 1 0.851878 0.510781 0.5
727 1 0.860743 0.502484 0.5
1337 1 0.865385 0.523513 0.5
1145 1 0.90382 0.502835 0.5
1292 1 0.896978 0.50305 0.5
579 1 0.923752 0.508059 0.5
1034 1 0.937736 0.521484 0.5
47 1 0.965104 0.509638 0.5
844 1 0.993009 0.500503 0.5
292 1 0.0194292 0.546993 0.5
1300 1 0.0475126 0.543474 0.5
1543 2 0.0381706 0.532685 0.5
247 1 0.10963 0.546157 0.5
1465 1 0.127717 0.535949 0.5
1343 1 0.153956 0.534459 0.5
1552 2 0.160085 0.541828 0.5
927 1 0.177458 0.533733 0.5
1410 1 0.193761 0.541535 0.5
98 1 0.232851 0.529154 0.5
793 1 0.23077 0.545636 0.5
1383 1 0.2532 0.536005 0.5
1299 1 0.284853 0.532438 0.5
576 1 0.296159 0.539129 0.5
545 1 0.31853 0.539462 0.5
597 1 0.345364 0.538608 0.5
1250 1 0.351492 0.530419 0.5
720 1 0.377137 0.533293 0.5
554 1 0.411408 0.530177 0.5
879 1 0.48132 0.546602 0.5
32 1 0.50625 0.535632 0.5
606 1 0.500598 0.544836 0.5
59 1 0.529038 0.546779 0.5
1509 2 0.554087 0.542929 0.5
89 1 0.581456 0.53498 0.5
1086 1 0.58449 0.528558 0.5
1306 1 0.645716 0.546553 0.5
676 1 0.704024 0.526922 0.5
976 1 0.711105 0.5396 0.5
1517 2 0.743115 0.541777 0.5
87 1 0.804102 0.537215 0.5
1236 1 0.787918 0.533849 0.5
1256 1 0.792559 0.53895 0.5
1223 1 0.812669 0.524135 0.5
1254 1 0.819273 0.529044 0.5
1188 1 0.844145 0.538807 0.5
185 1 0.860745 0.539049 0.5
265 1 0.877583 0.536781 0.5
482 1 0.86378 0.543294 0.5
291 1 0.889721 0.54167 0.5
1342 1 0.921732 0.546938 0.5
54 1 0.932322 0.536216 0.5
191 1 0.947732 0.530497 0.5
199 1 0.962607 0.530903 0.5
369 1 0.993904 0.547254 0.5
629 1 0.978136 0.524947 0.5
777 1 0.999437 0.544087 0.5
1356 1 0.0179429 0.56584 0.5
1392 1 0.0239526 0.571334 0.5
592 1 0.0559629 0.568526 0.5
853 1 0.0689927 0.559941 0.5
1032 1 0.0642917 0.550098 0.5
915 1 0.0762513 0.556227 0.5
411 1 0.137834 0.568141 0.5
945 1 0.12748 0.551161 0.5
57 1 0.152589 0.570749 0.5
808 1 0.165143 0.553667 0.5
1146 1 0.173413 0.554626 0.5
462 1 0.195071 0.563912 0.5
643 1 0.298659 0.559884 0.5
122 1 0.332335 0.561977 0.5
830 1 0.310321 0.569502 0.5
219 1 0.378209 0.561601 0.5
439 1 0.367023 0.562303 0.5
1114 1 0.421287 0.566436 0.5
714 1 0.43622 0.553152 0.5
403 1 0.489175 0.561932 0.5
168 1 0.532907 0.561063 0.5
658 1 0.606149 0.55075 0.5
936 1 0.60853 0.565888 0.5
70 1 0.637328 0.566485 0.5
296 1 0.620847 0.567133 0.5
811 1 0.62037 0.566212 0.5
1533 2 0.64887 0.562934 0.5
1397 1 0.693018 0.550238 0.5
1075 1 0.728955 0.549934 0.5
1548 2 0.723125 0.568612 0.5
272 1 0.742581 0.56321 0.5
729 1 0.74621 0.548846 0.5
1515 2 0.801425 0.550157 0.5
910 1 0.832366 0.567189 0.5
120 1 0.839088 0.558791 0.5
770 1 0.85319 0.567032 0.5
1173 1 0.911261 0.56017 0.5
12 1 0.954635 0.556437 0.5
61 1 0.975163 0.559668 0.5
466 1 0.963917 0.553296 0.5
912 1 0.966357 0.559527 0.5
313 1 0.978674 0.571204 0.5
694 1 0.993309 0.551204 0.5
701 1 0.985635 0.56194 0.5
905 1 0.983433 0.564251 0.5
1142 1 0.986765 0.563488 0.5
1593 2 0.981945 0.550298 0.5
42 1 0.00312882 0.586142 0.5
511 1 0.00556767 0.575788 0.5
285 1 0.0238944 0.593328 0.5
822 1 0.0451952 0.594983 0.5
639 1 0.0808937 0.581004 0.5
51 1 0.113559 0.591744 0.5
1197 1 0.109097 0.585872 0.5
1298 1 0.120164 0.588154 0.5
1316 1 0.166871 0.594169 0.5
902 1 0.236543 0.585814 0.5
134 1 0.248622 0.588809 0.5
355 1 0.280692 0.585828 0.5
774 1 0.307229 0.592071 0.5
815 1 0.286166 0.588007 0.5
490 1 0.360539 0.581606 0.5
899 1 0.371725 0.586163 0.5
1126 1 0.361253 0.581081 0.5
1504 2 0.416468 0.583213 0.5
1444 1 0.453774 0.585023 0.5
127 1 0.494055 0.584496 0.5
347 1 0.479001 0.577865 0.5
620 1 0.48162 0.57931 0.5
46 1 0.506729 0.595133 0.5
246 1 0.53273 0.587763 0.5
317 1 0.588659 0.591295 0.5
1535 2 0.592051 0.594538 0.5
496 1 0.631557 0.573587 0.5
217 1 0.662258 0.575418 0.5
583 1 0.684511 0.571472 0.5
824 1 0.696055 0.590978 0.5
1338 1 0.715689 0.579569 0.5
279 1 0.740321 0.577974 0.5
239 1 0.795655 0.573044 0.5
798 1 0.854023 0.572093 0.5
60 1 0.000868919 0.603927 0.5
1401 1 0.0372825 0.60772 0.5
718 1 0.0498956 0.59545 0.5
336 1 0.098031 0.606787 0.5
92 1 0.13135 0.597039 0.5
26 1 0.150569 0.608712 0.5
553 1 0.216613 0.612693 0.5
698 1 0.250526 0.595944 0.5
1182 1 0.271649 0.607989 0.5
63 1 0.300327 0.596897 0.5
1528 2 0.32014 0.596887 0.5
105 1 0.378985 0.601819 0.5
568 1 0.396776 0.608241 0.5
1404 1 0.400346 0.616864 0.5
321 1 0.406473 0.600082 0.5
1478 1 0.419207 0.618316 0.5
1498 1 0.463354 0.595477 0.5
183 1 0.582055 0.598454 0.5
225 1 0.582889 0.613306 0.5
1206 1 0.58265 0.596023 0.5
1076 1 0.616327 0.603571 0.5
97 1 0.624478 0.603672 0.5
672 1 0.628227 0.612871 0.5
773 1 0.628406 0.612718 0.5
1096 1 0.749665 0.61585 0.5
143 1 0.806546 0.618751 0.5
1251 1 0.80351 0.59962 0.5
669 1 0.820051 0.595441 0.5
146 1 0.856168 0.615763 0.5
964 1 0.844506 0.615451 0.5
346 1 0.871043 0.615433 0.5
999 1 0.921914 0.612222 0.5
91 1 0.942678 0.595647 0.5
103 1 0.956899 0.599792 0.5
783 1 0.959041 0.60977 0.5
207 1 0.983852 0.595829 0.5
535 1 0.989267 0.6181 0.5
1474 1 0.998609 0.614018 0.5
311 1 0.0438288 0.631399 0.5
1011 1 0.141585 0.623195 0.5
27 1 0.205667 0.639742 0.5
357 1 0.208522 0.631476 0.5
211 1 0.229228 0.632441 0.5
451 1 0.246423 0.627536 0.5
506 1 0.285455 0.642635 0.5
1447 1 0.330555 0.631108 0.5
1225 1 0.340193 0.624148 0.5
648 1 0.40957 0.63682 0.5
80 1 0.429561 0.623768 0.5
929 1 0.542133 0.636398 0.5
726 1 0.549213 0.62566 0.5
682 1 0.604191 0.635443 0.5
826 1 0.650303 0.635203 0.5
1052 1 0.657799 0.635858 0.5
421 1 0.702661 0.621636 0.5
1518 2 0.702006 0.623028 0.5
387 1 0.726758 0.624216 0.5
1393 1 0.776084 0.635604 0.5
202 1 0.818268 0.632922 0.5
1377 1 0.817792 0.626617 0.5
895 1 0.842127 0.634694 0.5
35 1 0.888834 0.630151 0.5
944 1 0.881396 0.627506 0.5
1235 1 0.93328 0.637257 0.5
112 1 0.953211 0.621287 0.5
290 1 0.966718 0.624979 0.5
1033 1 0.0465071 0.645552 0.5
487 1 0.0610844 0.644845 0.5
1014 1 0.070248 0.657829 0.5
655 1 0.074769 0.643172 0.5
723 1 0.0880976 0.656462 0.5
586 1 0.14129 0.661097 0.5
566 1 0.146823 0.648757 0.5
1009 1 0.164256 0.644496 0.5
517 1 0.170979 0.64286 0.5
684 1 0.282956 0.645814 0.5
645 1 0.304377 0.665616 0.5
1083 1 0.306161 0.65462 0.5
503 1 0.335376 0.662353 0.5
1099 1 0.352689 0.643389 0.5
1105 1 0.345907 0.652994 0.5
1227 1 0.3515 0.660031 0.5
1278 1 0.340671 0.658949 0.5
1030 1 0.393565 0.648485 0.5
1100 1 0.409809 0.65635 0.5
651 1 0.432537 0.655047 0.5
1178 1 0.430336 0.664793 0.5
261 1 0.463358 0.650035 0.5
1587 2 0.455742 0.655534 0.5