LAMMPS (5 May 2020)
OMP_NUM_THREADS environment is not set. Defaulting to 1 thread. (../comm.cpp:94)
  using 1 OpenMP thread(s) per MPI task
Reading data file ...
  triclinic box = (0 0 0) to (102 40.4 40.4) with tilt (0 0 0)
  4 by 2 by 2 MPI processor grid
  reading atoms ...
  2500 atoms
  read_data CPU = 0.00395513 secs
Neighbor list info ...
  update every 1 steps, delay 10 steps, check yes
  max neighbors/atom: 2000, page size: 100000
  master list distance cutoff = 7.5155
  ghost atom cutoff = 7.5155
  binsize = 3.75775, bins = 28 11 11
  1 neighbor lists, perpetual/occasional/extra = 1 0 0
  (1) pair eam/alloy, perpetual
      attributes: half, newton on
      pair build: half/bin/newton/tri
      stencil: half/bin/3d/newton/tri
      bin: standard
Setting up Verlet run ...
  Unit style    : metal
  Current step  : 0
  Time step     : 0.0005
Per MPI rank memory allocation (min/avg/max) = 3.338 | 3.341 | 3.347 Mbytes
Step Lx Ly Lz Press Pxx Pyy Pzz PotEng Temp 
       0          102         40.4         40.4   -14828.439    -17880.46   -13307.648   -13297.207   -9229.3033          300 
    1000    100.41639    39.772765    39.772765    76.536447   -1380.4766    953.35336    656.73261   -9203.4452    281.93093 
    2000    99.561872     39.43431     39.43431    63.279455    585.17977   -76.957563   -318.38384   -9204.4787    303.49782 
    3000    98.445721    38.992227    38.992227    28.902066    3007.1813   -1620.1151     -1300.36   -9197.6761    293.07841 
    4000    98.975353    39.202002    39.202002   -91.440202    1879.7676   -1252.5481   -901.54012   -9199.3247    301.14939 
    5000     99.67067    39.477403    39.477403    15.203891    342.56136   -74.780321   -222.16937   -9211.0573    318.00176 
    6000    100.93052    39.976401    39.976401   -17.582112   -2088.6607    1259.3404    776.57397   -9200.7219    284.12069 
    7000    101.18428    40.076913    40.076913   -116.02046   -2466.7155    932.19747    1186.4566   -9196.0062    280.74623 
    8000    100.54992    39.825655    39.825655    3.6609998   -1342.4207    379.81746    973.58628   -9205.5396    304.15577 
    9000    99.206965    39.293739    39.293739   -20.061711    1347.3818   -591.36213   -816.20478   -9204.1892     290.1507 
   10000    98.834202    39.146096    39.146096   -94.905699    2132.5202   -951.94207   -1465.2952   -9198.9382    296.25986 
   11000    98.885975    39.166602    39.166602    23.440025    2156.5515   -1120.9208   -965.31061   -9203.6563      298.047 
   12000     100.0713    39.636084    39.636084     22.46973   -372.82283   -51.289802    491.52182   -9207.4755    301.62873 
   13000    100.90449    39.966091    39.966091    42.776362   -1893.9873    1008.3748    1013.9415   -9200.5973    287.99864 
   14000    101.03471    40.017668    40.017668    50.443981    -2096.868    1316.1256    932.07429   -9201.0692     298.3519 
   15000    100.21139    39.691571    39.691571   -27.542216     -595.854    326.82846     186.3989   -9206.7909      299.055 
   16000    99.289437    39.326404    39.326404   -51.721318    1366.5045   -961.24393   -560.42455    -9203.495    295.88196 
   17000    98.654941    39.075094    39.075094    36.402418    2570.7649   -1312.2247    -1149.333   -9200.8968    296.71981 
   18000    99.250682    39.311055    39.311055    -44.11853    1292.0774   -549.66973   -874.76328   -9204.9425    310.51982 
   19000    100.21232    39.691939    39.691939    34.929035   -624.77134    523.04417    206.51428    -9205.334    303.87751 
   20000    100.98755    39.998992    39.998992     52.60509   -1922.4404    930.11713    1150.1386   -9200.4313    296.34196 
Loop time of 6.72125 on 16 procs for 20000 steps with 2500 atoms

Performance: 128.548 ns/day, 0.187 hours/ns, 2975.638 timesteps/s
94.4% CPU use with 16 MPI tasks x 1 OpenMP threads

MPI task timing breakdown:
Section |  min time  |  avg time  |  max time  |%varavg| %total
---------------------------------------------------------------
Pair    | 4.0081     | 4.8654     | 5.6911     |  26.6 | 72.39
Neigh   | 0.0066934  | 0.010299   | 0.014002   |   2.6 |  0.15
Comm    | 0.49638    | 1.3519     | 2.2197     |  51.7 | 20.11
Output  | 0.00064039 | 0.00066924 | 0.00084496 |   0.0 |  0.01
Modify  | 0.33546    | 0.37479    | 0.41324    |   4.0 |  5.58
Other   |            | 0.1182     |            |       |  1.76

Nlocal:    156.25 ave 193 max 122 min
Histogram: 4 0 0 1 4 3 0 0 1 3
Nghost:    581.312 ave 648 max 521 min
Histogram: 3 1 0 0 6 2 0 0 2 2
Neighs:    5845.75 ave 8540 max 3448 min
Histogram: 4 0 2 2 0 2 2 0 0 4

Total # of neighbors = 93532
Ave neighs/atom = 37.4128
Neighbor list builds = 34
Dangerous builds = 0
Setting up Verlet run ...
  Unit style    : metal
  Current step  : 0
  Time step     : 0.0005
Per MPI rank memory allocation (min/avg/max) = 4.601 | 4.607 | 4.612 Mbytes
Step v_strain Temp v_p2 v_p3 v_p4 KinEng PotEng Press 
       0 -3.3772529e-15    296.34196   0.19224404 -0.093011713  -0.11501386    95.724706   -9200.4313     52.60509 
    1000       0.0005    304.25641   0.27838906 -0.027387096 -0.024336093    98.281241   -9201.4766    -755.5529 
    2000        0.001    307.58141   0.29326217 -0.011062631 -0.016478102    99.355285   -9200.6161   -885.73813 
    3000       0.0015    298.53555   0.29139948 -0.0030764777 -0.0041179555    96.433284   -9199.6934   -947.35017 
    4000        0.002    304.70667   0.30644151 -0.0016880286 0.0060721928    98.426686   -9200.9265   -1036.0856 
    5000       0.0025    302.47958   0.32586324 -0.010776563 -0.0028398131    97.707286   -9199.9424   -1040.8229 
    6000        0.003    302.63037   0.33534276  0.012472178  -0.01569237    97.755996    -9199.555   -1107.0752 
    7000       0.0035     304.1561   0.33097913  0.012289038 -0.004408366    98.248838   -9199.4832   -1129.5327 
    8000        0.004    298.02404    0.3446479 -0.001855205 0.0033076391    96.268053   -9199.0818   -1153.6678 
    9000       0.0045    304.96355   0.35827932 -0.003055073 0.0095399027    98.509661   -9199.4416   -1215.8805 
   10000        0.005    299.06579    0.3507473 -0.0023022607  0.013347827    96.604563   -9197.8602   -1205.9762 
   11000       0.0055    300.07562   0.37206455 -0.0076775545 0.0088214327    96.930759   -9197.7773   -1244.0281 
   12000        0.006    299.57124    0.3692354 0.0094309895 -0.011385779    96.767832   -9196.0651   -1224.2687 
   13000       0.0065    302.43835   0.37149564 -0.012399373 0.0061149417    97.693969   -9197.9291   -1217.3707 
   14000        0.007    297.42484    0.3808412 0.0046392023 -0.012147141    96.074499   -9196.2363   -1244.4442 
   15000       0.0075    302.29073   0.38910291 0.0068047168 -0.004453226    97.646284   -9197.1518    -1304.848 
   16000        0.008    304.04338   0.38879747 -0.0052922005  -0.00416678    98.212427   -9197.0084   -1264.4616 
   17000       0.0085    299.51396   0.41039045 -0.014294239 0.0072946268     96.74933   -9195.2579   -1344.6361 
   18000        0.009    306.19834   0.40188257 -0.00022733772 -0.0079105694    98.908527   -9195.9838   -1312.4822 
   19000       0.0095    303.61149   0.40407746  0.011291435 -0.0098244072    98.072919   -9196.8682    -1351.815 
   20000         0.01    301.70066   0.40889023 -0.0097081261 0.0084526281     97.45568   -9194.9765   -1358.7824 
   21000       0.0105    302.12687   0.42457466 -0.002045588 0.0021016385    97.593355   -9196.1348   -1415.4357 
   22000        0.011    294.29607    0.4095772 -0.0019395153 0.0043872354    95.063839   -9194.8888   -1373.4164 
   23000       0.0115    301.79163   0.42086619 -0.0068927647 -0.0076072694    97.485064   -9195.5335   -1354.5538 
   24000        0.012    301.21302   0.42607605 0.0036834344 -0.010543753    97.298162    -9193.369   -1397.3858 
   25000       0.0125     299.8463   0.43678941 -0.0020339721 -0.003617115    96.856684   -9193.3379   -1437.1278 
   26000        0.013    303.48215   0.44651247 -0.004969019 -0.00022875187    98.031138   -9192.6978    -1471.049 
   27000       0.0135    299.52887   0.45079493 -0.001935374 0.0099281228    96.754146   -9193.3633   -1529.2923 
   28000        0.014    300.88625     0.455106 0.0005199844 0.00076540413    97.192607   -9192.8112   -1521.3046 
   29000       0.0145    297.01053   0.46979009 -0.00046423273 -0.00025122042    95.940668    -9191.663   -1563.5821 
   30000        0.015    295.04199   0.46786782 0.0026143606 -0.00012424513     95.30479   -9189.6775   -1567.8598 
   31000       0.0155     297.2995   0.46933961 -0.0035769714 0.0054968303    96.034012   -9190.5898   -1570.8649 
   32000        0.016     300.5795   0.47150518 -0.0043545785 -0.0013407788     97.09352   -9190.6778   -1552.6994 
   33000       0.0165    299.58982   0.46754836 -0.0050309219 -0.0037647891    96.773834   -9189.2657   -1529.1755 
   34000        0.017    296.67631   0.48205644   0.01038571 -0.0097106358    95.832709   -9189.9894   -1609.1051 
   35000       0.0175    303.00606   0.49077942 -0.0079568501  0.009063355    97.877352   -9190.1893   -1639.6197 
   36000        0.018    308.61323   0.48720415 0.0059218283 -0.0030610438    99.688585   -9191.7514   -1633.5498 
   37000       0.0185    298.91354   0.49453028 -0.0079070948 0.0057701127    96.555381   -9188.9649    -1641.311 
   38000        0.019    303.25345   0.49640329 -0.0031460529 0.00018120677    97.957263   -9190.7692   -1644.7948 
   39000       0.0195    297.02614   0.50245286  0.011853186 -0.010694715    95.945713   -9186.2548   -1678.7044 
   40000         0.02    293.35779   0.49192902 0.0045401945 -0.0081601545    94.760755   -9185.2624   -1627.6969 
   41000       0.0205    307.01737    0.5061949 -0.0050945594 0.0087830986     99.17309   -9189.5244   -1699.6115 
   42000        0.021    300.92132    0.5114652 -0.0036708776 0.0077074068    97.203937   -9187.3587   -1718.3391 
   43000       0.0215    302.98836   0.50629191 -0.0025107054 -0.0011652869    97.871635   -9186.9346   -1675.3864 
   44000        0.022    295.42363   0.50358251 0.0045379593 -0.0080108755    95.428068   -9184.8655    -1667.032 
   45000       0.0225    298.04927   0.50644917 0.0035396471 -0.007905408    96.276205   -9185.2149   -1673.6114 
   46000        0.023    297.86036   0.51230672 -0.0040649885 -0.0039202885    96.215183   -9185.0873   -1681.0715 
   47000       0.0235    297.71883    0.5239684 0.0021392532 0.0038915371    96.169464   -9184.1999    -1766.664 
   48000        0.024    299.63648    0.5177434 0.0044506635 0.0017284397    96.788906   -9184.6429   -1746.4083 
   49000       0.0245    303.64016   0.53273592 0.0044313654 -0.0014060422    98.082181   -9185.4607   -1785.8708 
   50000        0.025      306.013   0.52713854 0.0069067735 -0.011599145    98.848658   -9184.7803   -1741.4872 
   51000       0.0255    298.98974   0.52983054 0.0064029306 -0.003551451    96.579995   -9183.2469   -1775.6067 
   52000        0.026     303.7444   0.53311216 -0.011471604 0.0025309304    98.115851   -9183.2235   -1747.2383 
   53000       0.0265    299.63541   0.53774666 0.00099578493   0.00363845     96.78856   -9181.9167   -1807.9363 
   54000        0.027    302.52674   0.54057007 0.0019620016 0.00089578927    97.722522   -9181.4844   -1811.4262 
   55000       0.0275    297.61359   0.53567257 -0.0018002932 -0.0018268872     96.13547   -9179.9634   -1773.4846 
   56000        0.028    300.83799   0.53049586 0.0055666956 -0.011321434    97.177019   -9180.4212   -1749.1371 
   57000       0.0285    301.44499    0.5459449 -0.0049300358 0.0019704147    97.373092   -9181.1184   -1809.9509 
   58000        0.029    301.47835   0.55012813  0.001746711 0.0028001877    97.383868   -9179.6029   -1848.9168 
   59000       0.0295    301.49038   0.55142999 0.00091713282  0.001084853    97.387754    -9179.879   -1844.7732 
   60000         0.03    297.87041   0.55560602 -0.00044942109 0.0008236977    96.218428   -9177.6456   -1853.2677 
   61000       0.0305    299.54307   0.54921814 -0.0055607505 -0.0011987701    96.758731   -9177.4732   -1808.1954 
   62000        0.031    300.29568   0.54383853 -0.0042791991 -0.005576594     97.00184    -9176.921   -1779.9424 
   63000       0.0315    299.12133   0.55167429 -0.0017477756 -0.00050601165    96.622502   -9176.4835   -1831.4017 
   64000        0.032    302.39817   0.54762785 0.0031866044 -0.002483811    97.680989   -9176.6736   -1827.7688 
   65000       0.0325     299.6285   0.56220308 -0.005099234 0.0025667828    96.786329   -9175.1687   -1865.5688 
   66000        0.033    305.03917   0.56327752 -0.002185176 -0.0022881397    98.534088   -9177.4104   -1862.6807 
   67000       0.0335    297.91115   0.56122511 0.0010879003 -0.0089131036    96.231589   -9174.1365   -1844.6663 
   68000        0.034    303.93179   0.56402471 -0.012982521  0.010377108    98.176383   -9174.7516   -1871.3977 
   69000       0.0345    304.16296   0.57322456 0.0018541353 3.1568639e-05    98.251055   -9173.6851   -1917.0342 
   70000        0.035    299.04523   0.57569213 0.0020571297 0.00058765713    96.597919   -9173.9169   -1927.7897 
   71000       0.0355    301.03283   0.57825364 -0.005913024 0.0048345286    97.239956   -9172.7391   -1923.9171 
   72000        0.036    300.44803   0.56651808 -0.0038433843 0.0047582968    97.051052   -9170.5881   -1891.4433 
   73000       0.0365    302.99037   0.57322914 4.9781436e-05 0.0026871471    97.872284   -9172.1421   -1919.8869 
   74000        0.037    301.07978   0.57661894 -0.00031322276 0.0014133662    97.255122   -9170.5371   -1925.7303 
   75000       0.0375    301.65064    0.5720203 0.00016307507 -0.002695763    97.439522   -9170.2406    -1898.292 
   76000        0.038    302.86044   0.57698522 0.0015941642 -0.00099443126    97.830312   -9169.4201   -1925.2832 
   77000       0.0385    302.96287   0.57306039 0.0082474616 -0.0056674029    97.863399   -9169.1424   -1918.8015 
   78000        0.039    297.86511   0.58289147 -0.00031691489 0.0039957613    96.216717   -9167.9356   -1955.2344 
   79000       0.0395    297.41594    0.5809716 -0.0019965381 0.0013223365    96.071623   -9167.6566   -1934.3247 
   80000         0.04    302.77517   0.58360977 -0.0013993944 0.0011889454    97.802769   -9166.7543   -1944.6644 
   81000       0.0405    300.63241   0.58734227 0.0011494775 0.0011501233    97.110612   -9167.1785   -1965.4729 
   82000        0.041    300.28987   0.58143328 0.0009859413 0.00088306566    96.999965   -9165.9942    -1944.341 
   83000       0.0415     301.4363   0.59167734 0.0031755184 -0.00025780525    97.370286   -9165.7288   -1981.9835 
   84000        0.042    302.15736   0.59468722 -0.00043442594 -0.0033659303    97.603205   -9165.7517   -1969.6229 
   85000       0.0425    297.21149   0.58542926 0.0074880928 -0.0038234268    96.005582   -9161.6695   -1963.6464 
   86000        0.043    300.14768   0.59173265 0.0072120488 -0.0046363937    96.954035    -9162.376   -1981.0277 
   87000       0.0435    296.35417    0.5910336 0.0021452073 -0.00077699609     95.72865   -9161.6562   -1974.6727 
   88000        0.044    300.14584   0.58834537 -0.0049972041 -0.00062030874    96.953442   -9162.3326   -1942.4262 
   89000       0.0445    298.91314    0.6004139 -0.0057883355 0.0044477635    96.555252   -9160.7691   -1996.9111 
   90000        0.045    306.14198   0.59858491 -0.0080669301 0.0091215824    98.890321   -9161.5866   -1998.7986 
   91000       0.0455    303.56711   0.59658617 -0.00030562359 0.0033002841    98.058583   -9160.0916   -1998.6028 
   92000        0.046    303.11507   0.59655836 0.00089260051 -0.0044970574    97.912563   -9160.8671    -1976.513 
   93000       0.0465    294.65342   0.59954178 0.0021486311 -0.0030606415    95.179273   -9157.2556   -1995.4326 
   94000        0.047    294.78213   0.59779482  0.003848403 -0.0033580263    95.220847    -9156.733    -1994.284 
   95000       0.0475    299.12809   0.59919343 -9.8579007e-05 -0.0052226548    96.624686   -9157.3831    -1979.574 
   96000        0.048    303.11432   0.61004532 -0.0042365262 0.0069935936    97.912322   -9156.1854   -2042.6746 
   97000       0.0485    296.12123   0.60655084 -0.0019892508 0.0059246578    95.653407   -9154.2686   -2034.9542 
   98000        0.049    298.15501    0.6052683 0.00063774803 0.0026628822    96.310359   -9154.8912   -2028.5631 
   99000       0.0495    298.41658   0.60582399   0.00101505 -0.00068284068    96.394853   -9152.9423   -2020.5207 
  100000         0.05    303.02095   0.61303394 0.0056986296 -0.0051437261    97.882162   -9154.9635   -2045.2961 
  101000       0.0505    292.50969   0.60471388 0.00019943213 -0.0030716215    94.486803   -9151.6181    -2006.139 
  102000        0.051    300.31867   0.60647339 0.0034976298 -0.0087290657    97.009268   -9151.6854   -2004.1398 
  103000       0.0515    303.94329   0.61181505 0.0096494061 -0.0053053373    98.180096   -9152.5218   -2053.8637 
  104000        0.052    299.03255   0.61113404 0.0055145919 -0.0034588038    96.593823   -9150.4792   -2043.9661 
  105000       0.0525    298.57048   0.61815088 0.0074506375 -0.0065370235    96.444565   -9149.5076   -2063.5483 
  106000        0.053    299.88576   0.61097754 -0.0036310516 -0.00021792034    96.869428   -9148.9652   -2023.7619 
  107000       0.0535    297.65951   0.62002648  0.001436667 0.0013571548    96.150302   -9148.5592   -2076.0677 
  108000        0.054    301.52286     0.618109 0.0029079182 -0.0031895328    97.398247   -9148.3453   -2059.4246 
  109000       0.0545    301.59304   0.61654315 0.0023627375 -0.0032663756    97.420918   -9147.7983   -2052.1317 
  110000        0.055    295.78041   0.61145443 0.0068294118 -0.010833755    95.543314   -9147.8769   -2024.8336 
  111000       0.0555    300.88186   0.61740738 0.0020520242 -0.0064840434    97.191191   -9144.9627   -2043.2512 
  112000        0.056    305.17835   0.61967784 0.00010229688 -0.0061740687    98.579048   -9145.5609   -2045.3536 
  113000       0.0565    296.56257   0.62644664 0.0071597884 -0.00045742951    95.795969   -9143.2815   -2110.4967 
  114000        0.057    298.31288   0.61699997 -0.0010199288 0.00011886127    96.361355   -9142.1614    -2053.663 
  115000       0.0575    300.44046   0.62983177 -0.0026860606 -0.0019049042    97.048609   -9144.3924    -2084.136 
  116000        0.058    296.00407   0.62445471 -7.4830436e-05 -0.0032464732    95.615562   -9140.9989   -2070.4447 
  117000       0.0585    303.35051   0.63176923 -0.0067977139 0.0039308376    97.988617   -9141.4272   -2096.3412 
  118000        0.059    299.34827   0.62464665 -0.0032440007 -0.00071968045    96.695807   -9138.9749   -2068.9432 
  119000       0.0595    305.40727     0.622459 0.0030724559 -0.0073414374    98.652993   -9139.0841   -2060.6334 
  120000         0.06    297.83628   0.62920903 -0.0026636905 0.0014224546    96.207404   -9138.8706    -2093.226 
  121000       0.0605    306.14958   0.62488392 0.0010566168 -0.0040034649    98.892773   -9139.5779   -2073.1236 
  122000        0.061    299.91494   0.63679966  0.012368951 -0.011856773    96.878855   -9137.9018   -2124.3728 
  123000       0.0615     292.6973   0.63725197 -0.00063054845 0.0014395671    94.547405   -9134.7328     -2126.87 
  124000        0.062    297.96162    0.6358033 -0.0019561581 0.0028307103    96.247889   -9134.9965   -2122.2595 
  125000       0.0625    299.39205   0.63047188 -0.0033050249 0.0016763037     96.70995   -9135.2453   -2096.1439 
  126000        0.063    301.47194   0.63170292 -0.0039515082 0.0023825124    97.381799   -9134.1663   -2100.4464 
  127000       0.0635    306.51795   0.63333788 -0.0017135458 -0.00093505565    99.011767   -9133.8795   -2102.2976 
  128000        0.064    300.46114   0.63636279 -0.00039429058 -0.0007120057    97.055289    -9132.434   -2117.5216 
  129000       0.0645    300.99403   0.63680526 0.00082532158 0.0017057705    97.227422   -9133.1551   -2131.1212 
  130000        0.065    298.86257   0.64040669 -0.00088834967 0.0012600091    96.538917   -9129.6635   -2135.9278 
  131000       0.0655    297.75452   0.64186554 -0.0057512846 0.0068060123    96.180993   -9129.3963   -2143.0675 
  132000        0.066    300.50059   0.64643944 0.0012503252 -0.0054639233    97.068033   -9128.7939   -2140.7528 
  133000       0.0665    299.29932   0.63945797 0.0035178772 -0.0048997731    96.679997   -9127.1617   -2126.9202 
  134000        0.067    301.28314   0.64247391 -0.0047490751 0.0049859576    97.320812   -9127.8369   -2142.3693 
  135000       0.0675    299.30815   0.64525248 -0.00053512593 -0.0030504949    96.682847   -9125.9609   -2138.8895 
  136000        0.068    296.84816   0.65008444 -0.0010637959 0.0037582081    95.888219   -9124.6293   -2175.9295 
  137000       0.0685    300.49656   0.65151515 -0.001979839 -0.00025652306     97.06673   -9124.4631   -2164.2626 
  138000        0.069    301.00749   0.65254783 -0.0027298127 0.0054594365    97.231773   -9122.7882   -2184.2582 
  139000       0.0695    303.23283   0.65521268 0.0076112748 -0.0066662647    97.950602    -9124.786   -2187.1923 
  140000         0.07    300.74923   0.65697115 0.0018469007 0.00066966205    97.148349    -9123.041   -2198.2924 
  141000       0.0705    299.98044   0.65565026 0.0048192101 -0.002316542    96.900011   -9122.1921   -2193.8431 
  142000        0.071      294.532   0.65326786 -0.0037092509  0.005349575     95.14005   -9119.9849   -2183.0273 
  143000       0.0715    296.72398   0.65609908 0.0021268531 -0.0021205205    95.848108   -9118.3175    -2187.018 
  144000        0.072    307.98967   0.65874122 -0.0017258912 0.0010929343    99.487162   -9120.0389   -2193.6942 
  145000       0.0725    300.62511   0.66343336 3.6739941e-05 -0.0035071505    97.108255    -9118.772   -2199.8765 
  146000        0.073    297.90133   0.65923307 0.00079917223 -0.0021395031    96.228417   -9116.0234   -2192.9758 
  147000       0.0735    299.75285   0.66895577 -0.0037606928  0.001440275    96.826497   -9115.5237   -2222.1178 
  148000        0.074    296.21199   0.66557247 -0.00025182212 -0.00066211992    95.682725   -9113.9766   -2215.5284 
  149000       0.0745    298.98608    0.6606319 0.0044657533 -0.00062441376    96.578813   -9112.6601   -2214.9108 
  150000        0.075    300.11073   0.66505482 4.2329369e-05 0.00080284492    96.942097   -9113.2859   -2219.6667 
  151000       0.0755    298.01632   0.67276232 8.2120675e-05 0.0028567541     96.26556   -9111.0121   -2252.3373 
  152000        0.076     299.8434   0.66608461 0.0028579567 -0.001949899    96.855744   -9109.7578   -2223.3089 
  153000       0.0765    298.43453   0.67064483 -0.0013836019 0.0013303168    96.400651   -9108.1245   -2235.3051 
  154000        0.077    299.70373    0.6656682 0.0018711796 -0.0015129614    96.810629    -9109.874   -2220.0881 
  155000       0.0775    300.03825   0.65873151 0.0023913294 -0.0019838647    96.918685   -9108.3108   -2197.1299 
  156000        0.078    300.62864   0.67180973 0.0024889823 0.0042764504    97.109395   -9107.1131   -2261.9172 
  157000       0.0785    298.14154   0.67856858 -0.001038538 0.0027751943     96.30601   -9106.4592   -2267.6841 
  158000        0.079    296.69093   0.66800062 -0.00036226133 0.00034731533    95.837432   -9104.8355   -2226.6189 
  159000       0.0795    298.96903    0.6721636 -0.0027742394 -0.0029503672    96.573306   -9105.2853   -2221.4633 
  160000         0.08    301.61781   0.67262603 -0.0021734667 5.1003473e-05    97.428917   -9103.1278   -2235.0119 
  161000       0.0805     297.9124   0.67806285 0.0069284151 -0.0036752209    96.231992    -9102.809   -2271.0535 
  162000        0.081    297.63856   0.67694887 0.00014861666 0.0027558768    96.143534   -9101.7967   -2266.1779 
  163000       0.0815    295.51911   0.67648881 0.0011049416 -0.00021709094     95.45891   -9100.0967   -2257.9222 
  164000        0.082    298.57177   0.67980353 -0.0010887662 -6.0004832e-05    96.444983   -9100.3689   -2262.1825 
  165000       0.0825    299.05906   0.67590024 -0.0019455138 0.0020113268    96.602388   -9099.0344   -2253.2202 
  166000        0.083    299.02176    0.6761517 -0.0031890473 0.00094960919    96.590338   -9097.5774   -2246.3742 
  167000       0.0835    297.79188   0.67918209 0.00054771358 -0.0039065276    96.193061   -9097.3659   -2252.7443 
  168000        0.084    298.10607   0.68091236 -0.002380527 0.0025097735    96.294551   -9094.6017   -2270.1387 
  169000       0.0845    301.49815   0.68106017 0.0011316909 -0.0020795056    97.390264   -9094.5026   -2267.0412 
  170000        0.085    304.28496    0.6780809 -0.0001014687 0.00020686096    98.290463   -9094.4301    -2260.621 
  171000       0.0855     295.4596    0.6800651 0.00016823123 0.00056099838    95.439685   -9090.7444   -2269.3144 
  172000        0.086    303.88656   0.67550542 0.0026847135 0.00082053403    98.161773   -9092.0576   -2263.3689 
  173000       0.0865    296.76917   0.67555781 0.00019056844 0.0026737558    95.862706   -9090.0755   -2261.4071 
  174000        0.087    301.81279   0.67491834 -0.0018747697 0.0010094195      97.4919   -9088.3727   -2246.8433 
  175000       0.0875    298.83744   0.67168287 -0.0014381784 0.00074323439    96.530799   -9088.3496   -2236.6264 
  176000        0.088    295.85305   0.66509897 -0.005164235 0.0043091222    95.566778   -9086.8629   -2214.1462 
  177000       0.0885    298.11317   0.66996981 0.0035566973 -0.0017585391    96.296845   -9088.1494   -2239.2266 
  178000        0.089    301.14099   0.66809095 0.0020780208 -0.00054950982    97.274894   -9089.2044   -2232.0649 
  179000       0.0895     306.6352   0.65077276 0.00076795198 -0.0034024073    99.049641   -9089.6884    -2160.461 
  180000         0.09    303.66016    0.6432987 -0.0041838039  0.002188854    98.088641   -9089.9299   -2137.6792 
  181000       0.0905    299.40914   0.61823553 -0.002853228 -0.00039381599    96.715471   -9090.2186   -2049.9616 
  182000        0.091     300.0948   0.58390814 -0.0011447224 -0.00014852867    96.936955   -9095.8534   -1942.0496 
  183000       0.0915    300.51818   0.54822198 0.0045157778 -0.0032209817    97.073715   -9099.3135   -1831.7226 
  184000        0.092    303.87216   0.51878954 0.00030869417 0.00011721664    98.157119   -9107.2439   -1730.7182 
  185000       0.0925    305.46131   0.50617252 -0.0057781273 0.0066512346     98.67045   -9115.6585   -1690.1521 
  186000        0.093    300.18388   0.49218697   0.00569964 -0.0025938503    96.965729   -9114.6301   -1650.9759 
  187000       0.0935    298.69102   0.48268315 0.0050958849 -0.005559075    96.483502   -9116.8266   -1607.3999 
  188000        0.094    297.04814   0.46250997 0.00080435566 -0.00053707779    95.952818   -9116.3456   -1542.5908 
  189000       0.0945    299.35864   0.44916549 -0.0025313853 0.0033607986    96.699157   -9115.1965    -1499.983 
  190000        0.095    307.43455   0.43818539 0.0043425062 -0.0037534262    99.307846   -9118.8144   -1462.5816 
  191000       0.0955     299.4721   0.42102651 0.00036764091 0.00077461309    96.735807   -9121.6134   -1407.2292 
  192000        0.096    296.39025    0.4098963 -0.0038797102 0.0019370811    95.740306   -9121.2871   -1359.8456 
  193000       0.0965    302.12574   0.39383301  0.002138571  -0.00321441     97.59299   -9119.8728   -1309.1906 
  194000        0.097    300.64482    0.3891681 0.00036469061 -0.00069306388    97.114621   -9120.9524   -1296.1324 
  195000       0.0975     296.9871   0.38339829 -0.0039001685 0.0035457082      95.9331   -9121.6765   -1276.8128 
  196000        0.098    303.17883   0.35775813 -0.003218996 0.00067333646    97.933159   -9125.9613   -1184.0416 
  197000       0.0985    302.21301   0.34091526 -0.0031028228 0.00025510075     97.62118   -9126.7078   -1126.8918 
  198000        0.099    302.65417   0.31878417 0.0059419511 -0.003212655    97.763683   -9127.4529   -1071.7116 
  199000       0.0995    302.62973   0.29613841 0.0056359806 -0.0041227806    97.755787   -9129.4668   -992.17202 
  200000          0.1    308.00793   0.28389183 -0.00050469197 -0.0007119993    99.493063   -9134.8598   -942.25046 
  201000       0.1005    305.27844   0.26359783 -0.0037176379 0.0023521882    98.611379   -9138.4946   -874.10794 
  202000        0.101    296.93505   0.24741491 -0.0035362842 0.0036621451    95.916287   -9140.7369    -825.1359 
  203000       0.1015    306.80731   0.23848811 0.0009398491 -0.0032286258    99.105235   -9142.3004    -787.3311 
  204000        0.102    300.99355   0.24921219 0.0043138302 -0.0051041366    97.227268   -9140.4611   -828.07296 
  205000       0.1025    301.08698    0.2623882 -0.0027236415 0.00088274064    97.257447   -9142.1764   -868.49099 
  206000        0.103    301.07042   0.26982708 -0.0028599853  0.001732288    97.252099   -9144.0802   -895.66462 
  207000       0.1035     306.2268   0.27749688 -0.00053533063 0.0014567349    98.917719   -9145.9955   -928.06094 
  208000        0.104    302.55406    0.2862684 0.0018430686 0.0017884557    97.731345   -9148.9482   -966.33307 
  209000       0.1045    299.71979   0.28809674 0.0016640547 0.0010509385    96.815818   -9145.1207   -969.37243 
  210000        0.105    296.28434   0.28227868 0.0013990843 -0.0027467234    95.706093    -9143.619    -936.4368 
  211000       0.1055     299.8756   0.28698352 -0.00093169875 0.0012717539    96.866145   -9143.2177   -957.74526 
  212000        0.106     297.3471   0.29057819 0.0008102793  0.004396603    96.049388   -9142.2736   -985.95025 
  213000       0.1065     299.5359   0.29245819 0.00022978521 0.0017129551    96.756418   -9143.3717   -981.33643 
  214000        0.107    302.00009   0.30034608 -0.0011525364 0.0036789567    97.552401   -9146.1075    -1009.575 
  215000       0.1075    299.87913   0.30338826 0.0048398459 -0.0030316594    96.867286   -9141.5102   -1017.3215 
  216000        0.108    306.13813   0.29910001 -0.0053767304 0.0028469564    98.889076   -9142.7384   -988.56744 
  217000       0.1085    298.32228   0.29993186 -0.0054383893 0.0034972678    96.364392   -9139.6282   -993.30245 
  218000        0.109    296.02166   0.30884639 0.0011775347 0.00043013477    95.621243   -9138.2304   -1034.8469 
  219000       0.1095    302.39731   0.30615474 -0.0013339562  0.003875945    97.680711   -9139.4924   -1028.9891 
  220000         0.11    297.86667   0.31704639 0.00036997875 0.0017357391     96.21722   -9140.5513   -1063.8404 
  221000       0.1105    298.75303   0.31659988 -0.0047640013 0.0020647779    96.503534   -9139.1141   -1046.3355 
  222000        0.111    299.94473   0.31480331 0.00052769082 -0.0026573632    96.888478   -9138.6787   -1042.2455 
  223000       0.1115    298.08027   0.32045769 -0.0034069388 0.0014088579    96.286217   -9136.9309    -1061.532 
  224000        0.112    301.53295    0.3194165 -0.0015524931  0.002140902    97.401507   -9137.3811    -1066.683 
  225000       0.1125    296.30253    0.3212313  0.001010938 -0.0018318937    95.711971   -9138.0836   -1068.0345 
  226000        0.113    299.13859   0.32434166 0.0019647974 -0.0032351454    96.628079   -9138.5183   -1076.9044 
  227000       0.1135    297.63747   0.32649916 -0.003512392  0.002129731    96.143185   -9137.6986   -1083.7217 
  228000        0.114    298.45024   0.33181845 -0.0041887599 0.0044108809    96.405726   -9135.1995   -1106.8019 
  229000       0.1145    304.43074   0.32703569 -0.0029917186 0.0013931979    98.337555   -9136.3593   -1084.7906 
  230000        0.115    295.59116   0.33210697 -0.0020704284 0.0024602653    95.482182   -9133.3809   -1108.3227 
  231000       0.1155    299.21371    0.3352593 -0.0014263368  0.001092519    96.652343   -9134.6597   -1116.4183 
  232000        0.116    296.20109   0.34428986 8.8987765e-05 -0.00083564929    95.679201   -9133.2532    -1145.144 
  233000       0.1165    296.99608   0.34231989 0.0012945297 -0.0026387341       95.936    -9131.734   -1136.5856 
  234000        0.117    295.93064   0.34456742 0.0056259069 -0.0049964595    95.591841   -9131.0367   -1150.6562 
  235000       0.1175    303.49548   0.34476358 -0.0011200601 -0.0011897009    98.035446   -9130.4159   -1141.5127 
  236000        0.118    299.62928   0.34495945 0.0014741212 -0.0019510187    96.786581   -9129.2598   -1148.2752 
  237000       0.1185     294.7586   0.34665212 0.0016619826 -0.0004961359    95.213247    -9130.078   -1159.3932 
  238000        0.119      295.647   0.34777078 -0.0042818972 0.00098396167    95.500221   -9131.6818   -1148.2428 
  239000       0.1195    299.58883   0.35041779 0.00075074995 0.00016205568    96.773514   -9130.7691    -1171.102 
  240000         0.12    299.30882   0.34641502 0.0051543813 -0.00097996705    96.683066   -9128.8918   -1168.6315 
  241000       0.1205    299.50027   0.35333267 0.0042372638 -0.001284461    96.744908   -9129.3104   -1187.6183 
  242000        0.121    300.75565   0.35511091 0.00016230857 0.0028180236    97.150421   -9128.9652   -1193.6375 
  243000       0.1215    298.05059   0.36222062 0.00026948322 0.0024810175    96.276629   -9129.5174   -1216.5704 
  244000        0.122    295.13904   0.36050017 0.0047599145 -0.0061645323    95.336138   -9126.3118   -1196.9852 
  245000       0.1225    297.98931   0.36287415 0.00082264857 0.0011173633    96.256837   -9126.6763   -1216.0472 
  246000        0.123    296.51147   0.35947369 -0.0041079539 0.0020978738    95.779463   -9126.9751   -1191.5454 
  247000       0.1235    299.33813   0.36286046 -0.0064145055 0.0023686526    96.692531   -9126.7031   -1196.0487 
  248000        0.124    302.44262    0.3621183 0.00040928344 -0.0041355724     97.69535   -9125.7488   -1194.6401 
  249000       0.1245    289.51758    0.3694722 0.0015815089 -0.0011314686    93.520287    -9121.438   -1233.0741 
  250000        0.125      297.262   0.37053773 0.0022525215 0.0024138849    96.021897   -9124.7174   -1250.6804 
  251000       0.1255    301.78746   0.37561918 0.00089191738 -0.00071176453    97.483719   -9125.0257   -1252.6644 
  252000        0.126    298.30584   0.37888532 0.00032293791 -8.8067796e-05    96.359083   -9122.4864    -1263.734 
  253000       0.1265    302.50346   0.38366259 0.0014431031 0.00038563115       97.715   -9121.0018   -1284.9711 
  254000        0.127    297.24414   0.37947198 -9.6359977e-06 -0.00062038138     96.01613   -9119.4972   -1262.8065 
  255000       0.1275    299.13663   0.38345877 -0.0031045336 0.0020281729    96.627445   -9121.5834    -1274.608 
  256000        0.128    300.96373   0.37663434 -0.00063646624 -0.001683225    97.217635    -9120.608   -1247.7155 
  257000       0.1285    294.80048   0.38129159 0.0026700948 -0.0010899353    95.226774   -9119.3149   -1276.2392 
  258000        0.129    304.09705   0.39053558 -0.0042820568 0.0061393989    98.229766   -9119.8519   -1307.9764 
  259000       0.1295    297.31422   0.39349448 0.0039347524 -0.0016038766    96.038768   -9117.3524   -1319.4179 
  260000         0.13    300.06074   0.38756148 -0.00012076056 0.0020633736     96.92595   -9117.4459    -1298.347 
  261000       0.1305    301.25427    0.3917746 0.0013953647 0.00077867686    97.311487   -9116.1753   -1313.1621 
  262000        0.131     299.2481   0.39851116 0.0031637296 -0.000453034     96.66345   -9117.1585   -1337.4062 
  263000       0.1315    305.21909   0.39581755 -0.0044462378  0.005418316    98.592207   -9118.0113   -1322.6321 
  264000        0.132    303.38358     0.397499 -0.0024122902 0.0043008038    97.999298   -9115.9934   -1331.2917 
  265000       0.1325    298.03337   0.39997413 0.0027141496 -0.0008652375    96.271067   -9113.5929   -1339.4101 
  266000        0.133      298.548   0.40029236 -3.057242e-05 0.00049016503    96.437303    -9112.406   -1335.8398 
  267000       0.1335    303.34319   0.40426553 0.00037345546 -0.0022980537    97.986253   -9112.8805   -1341.1364 
  268000        0.134    297.13457   0.40762505 -0.00024543433  0.001407448    95.980735   -9110.4412   -1362.6235 
  269000       0.1345    306.17285    0.4045057 -0.0023426188 0.0024075354    98.900291   -9112.9809   -1348.5687 
  270000        0.135    302.36596    0.4076956 0.00060304186 0.0027529574    97.670586   -9110.9192    -1370.172 
  271000       0.1355    301.67855   0.40785444 0.00058430698 0.00065555301    97.448537    -9110.443   -1363.6477 
  272000        0.136    303.54938   0.39985386   0.00192868 -0.00037629759    98.052857    -9111.597   -1338.0208 
  273000       0.1365    300.45659   0.38668302 0.0016370093 0.00058222077     97.05382   -9111.6599   -1296.3408 
  274000        0.137    297.87532    0.3636297 -0.00044545936 -0.00018876071    96.220014   -9114.5869   -1209.9849 
  275000       0.1375    300.47434    0.3498214 -0.0010943709 0.00040011151    97.059554   -9117.4581   -1163.7571 
  276000        0.138    300.45103   0.33056022 -0.003612318 0.0018699118    97.052022   -9120.1289   -1096.0594 
  277000       0.1385    298.72488   0.31312527 -0.0039018496 0.0032135418     96.49444   -9124.4933   -1041.4565 
  278000        0.139    298.11402   0.29954008 -0.0013338237 0.0012832434    96.297119   -9123.2673   -998.29834 
  279000       0.1395    298.82403   0.29435227 0.0031511634 -0.0017664988    96.526466   -9123.1368   -985.78978 
  280000         0.14    302.92175   0.28274032  0.002423036 -0.0026381102    97.850118   -9125.3844   -941.75082 
  281000       0.1405    296.37455   0.27834243 0.0062135393 -0.0060313201    95.735233   -9121.1651   -928.41551 
  282000        0.141    301.87498    0.2685067 0.00057238704 2.3083685e-05    97.511988   -9123.0331   -897.00723 
  283000       0.1415    305.14501   0.27050837 0.0036848176 -0.0044840898    98.568277   -9122.8631   -899.03033 
  284000        0.142     300.9577   0.26544423 0.0061689445 -0.00090799511    97.215687   -9120.5894   -902.35059 
  285000       0.1425    302.40397    0.2742316 0.0044503236 -0.002261701    97.682863   -9123.3157   -921.40075 
  286000        0.143    303.64535   0.27672632 0.0011622721 -0.0028512194    98.083856   -9125.2964   -916.79124 
  287000       0.1435    302.46744   0.28114625 0.0022069644 -0.0026150084    97.703366   -9125.8449   -935.79403 
  288000        0.144    304.80334    0.2819611 0.0018744607 -0.0025779045    98.457912   -9125.4065   -937.52553 
  289000       0.1445    294.16052   0.27440552 0.0029798656 -0.0027050449    95.020056   -9124.7391   -915.60114 
  290000        0.145    309.33085   0.26769338 0.00013544735 -0.004024091    99.920392   -9124.9305   -879.34913 
  291000       0.1455    303.27496   0.26343991 0.0029050685 -0.0028533283    97.964213   -9124.9828    -878.3055 
  292000        0.146    302.70911   0.23914572 0.00054486923 0.00088604319    97.781432   -9129.8135   -801.92211 
  293000       0.1465    301.95311   0.22239408 -0.00059354484 -0.00064019296    97.537226   -9133.4086   -737.20113 
  294000        0.147    301.54086   0.21207444 0.00029022164 -0.00072194241     97.40406   -9134.5749   -705.47574 
  295000       0.1475    306.28951   0.20269811 0.0019811796 -0.0039938379    98.937977   -9135.4049   -668.95152 
  296000        0.148    293.71586   0.18984878 0.00021028251 -0.00031508813     94.87642   -9131.2184   -632.47991 
  297000       0.1485    299.31602    0.1812489 -0.0012670157 0.0010855101     96.68539   -9132.3576   -603.55799 
  298000        0.149    304.53144   0.18244741 -0.0021863881 -0.00031837492    98.370081   -9131.7683   -599.80881 
  299000       0.1495    301.02141   0.18083909 0.0010296934 -0.0023361416    97.236267    -9130.202   -598.44214 
  300000         0.15    303.82595   0.16916465 0.0022696642 -0.0035587732    98.142193   -9133.2745   -559.58513 
  301000       0.1505    300.05229   0.17375315 0.0024362676 0.0014206024    96.923223   -9131.9372   -592.03339 
  302000        0.151    297.61692    0.1662847 0.0058832268 -0.0034499798    96.136544   -9132.3696   -562.39315 
  303000       0.1515    306.25525   0.16522832 0.0041534306 -0.0014103152    98.926907     -9134.17   -559.90477 
  304000        0.152    301.59903     0.164941 -1.556868e-05 -0.002163319    97.422852   -9134.3257   -542.54038 
  305000       0.1525    299.41275   0.15660734 -0.0012803084 0.0020721348    96.716636   -9134.4507   -524.66389 
  306000        0.153    298.31504   0.14297708 -0.0029055014 0.0017667046    96.362054   -9135.7182   -472.79429 
  307000       0.1535    293.24606   0.12703458 -0.00053168284 -0.0012714186    94.724665   -9136.6324   -417.43828 
  308000        0.154    293.46496   0.11934449 -0.00064115507 -0.0020886064    94.795376   -9135.8952   -388.71577 
  309000       0.1545    300.43106   0.11837512 -0.00074968243 -0.00051535062    97.045573   -9136.5626   -390.36697 
  310000        0.155    301.64478   0.11077904 0.0015283567 -0.0010475262    97.437631   -9137.6092   -370.86624 
  311000       0.1555    298.75285   0.11498432 5.9945503e-05 0.00060938889    96.503474   -9135.7822   -385.51217 
  312000        0.156    300.40956   0.12468121 3.8892615e-05 -0.00090350384    97.038626   -9137.7328   -412.72201 
  313000       0.1565    301.24155   0.13607398 0.0013064498 -0.00010109799    97.307377   -9138.5218   -457.59777 
  314000        0.157    300.95082   0.13669858 -0.0015714639 0.0011009824    97.213467   -9137.5476   -454.09366 
  315000       0.1575    304.52004   0.15165913 -0.0012333439 0.0026115381      98.3664   -9140.7582   -510.12442 
  316000        0.158    300.48101   0.15734016 0.00067474334  0.003517576    97.061709    -9140.815    -538.4416 
  317000       0.1585    299.50001   0.15651013 0.00015675388 -0.0015394182    96.744824   -9138.5629   -517.09154 
  318000        0.159     300.7138   0.15973721 0.0016897376 -0.0032969944    97.136903   -9137.8695   -527.09984 
  319000       0.1595    301.61224   0.15905678 0.00035223078 -0.0015742142    97.427118   -9138.1406   -526.11597 
  320000         0.16    298.00577   0.15945881 0.0053334459 -0.0024964415    96.262154   -9137.3496   -540.98604 
  321000       0.1605    301.20943   0.15438382 0.00081745583 -0.00035189933    97.297001   -9138.7691   -516.16458 
  322000        0.161    302.24102   0.14936201 -0.0017108424 0.00083933577    97.630228   -9138.3139   -494.96835 
  323000       0.1615    296.93383   0.15111646 -0.0039591068 0.0031467559    95.915894   -9137.2718    -501.0137 
  324000        0.162    296.93385   0.14969534 -0.00073079199 0.0010448728    95.915901   -9136.8936   -500.03139 
  325000       0.1625    299.53371   0.15023198 0.00073439608 -0.0011145728     96.75571   -9136.6397   -499.50602 
  326000        0.163    298.26202   0.15044203 0.0022349581 -0.0024007439    96.344928   -9136.3405   -500.92081 
  327000       0.1635    297.57075    0.1539136 0.0022319347 -0.00096304942    96.121633   -9136.7901   -517.27495 
  328000        0.164    301.25605   0.16077101 -0.00040496989 0.0013218928    97.312061   -9137.1582   -538.95977 
  329000       0.1645     296.4864   0.16167287 0.0023207111 -3.1032921e-05    95.771363   -9135.8407   -546.54183 
  330000        0.165    300.71327   0.16538383 0.00038134115 -7.8042437e-05    97.136731   -9137.0658   -552.29042 
  331000       0.1655    300.09955   0.16965047 -0.0024641124 -0.00022560974    96.938488   -9135.8413   -556.53584 
  332000        0.166    298.83198   0.16798021 -0.0040200507 0.0027784263    96.529037   -9133.7728    -555.7953 
  333000       0.1665    295.69673   0.16817656  -0.00184862 -0.0007560371    95.516283   -9134.5476   -551.90633 
  334000        0.167    297.89879   0.16740769 0.0010093036 -0.0026762594    96.227597   -9132.8533   -552.46911 
  335000       0.1675     303.0476   0.16668505 0.0025132044 -0.0049337678    97.890771   -9135.9677   -547.54829 
  336000        0.168    298.46542   0.16363497 0.0043154019 -0.0064208127    96.410628   -9133.0729   -538.43185 
  337000       0.1685    303.98466   0.15913852 -0.00083625342 -0.0010930768     98.19346   -9136.2481   -524.03062 
  338000        0.169    301.46914   0.15127277  0.001957214 -0.0033957658    97.380895    -9135.365   -499.44738 
  339000       0.1695    297.62143   0.14660208 -0.0005037717 0.00023338477    96.138002   -9135.5278   -487.77232 
  340000         0.17    302.08555   0.13992869 0.0012964916 -0.00081553566    97.580009   -9135.8151   -468.03214 
  341000       0.1705     293.3631   0.13606948 0.00085707387 0.00073128349    94.762472    -9133.017   -458.85946 
  342000        0.171    302.34472   0.13313014 0.00024387635 -0.00044086749    97.663724    -9134.913   -443.11051 
  343000       0.1715    298.44131   0.13337093 -0.00024100715 0.00092898309    96.402842   -9133.8049   -446.86303 
  344000        0.172    303.53936    0.1328536 -0.0015878468 0.00082169178    98.049618   -9135.9752   -440.29148 
  345000       0.1725    300.12103   0.13254248 -0.0027696781 0.00051977381    96.945427   -9136.0473   -434.30858 
  346000        0.173    297.45092   0.13551254 -0.0050889436 0.0038575872    96.082926   -9134.9115   -447.60395 
  347000       0.1735    299.86926    0.1371075 -0.0037325385 0.0023778424      96.8641   -9134.6135   -452.50936 
  348000        0.174     296.9045    0.1392015 -0.0037157086  0.004325353    95.906418   -9134.3341   -466.03715 
  349000       0.1745    298.65041   0.13783502 0.0010903476 -0.0015068475    96.470384    -9133.246   -458.06172 
  350000        0.175    301.99651   0.14617812 -0.0020001373 0.0027415847    97.551246   -9136.9365   -489.73188 
  351000       0.1755    300.49906    0.1384136 -0.0026176865 0.0038812779    97.067539   -9139.5581   -465.59064 
  352000        0.176    303.54783   0.12782508 -0.0013426895 5.3162145e-06    98.052354    -9140.288    -421.6257 
  353000       0.1765    295.02765   0.11983049 -0.002473887 0.0037793639    95.300156   -9137.6347   -403.78657 
  354000        0.177    301.91351   0.11109483 -0.0022843936 0.0022536102    97.524436   -9137.8525    -370.2135 
  355000       0.1775    302.80025   0.10635406 0.00051785241 -0.00082907645    97.810872   -9136.4854   -353.47611 
  356000        0.178    295.45007   0.10501986 -0.00067700351 0.0019844614    95.436606   -9134.5739    -354.4244 
  357000       0.1785       301.96  0.099276159 -0.0010440709 -0.0010910614    97.539452   -9136.7664   -323.80342 
  358000        0.179     298.5534  0.099278269 -3.9073223e-05 -0.0014450731    96.439047   -9136.8633   -325.98041 
  359000       0.1795    302.28993   0.10113717 0.00023461324 -0.0018959248    97.646026   -9137.6617   -331.58621 
  360000         0.18    292.89079   0.10941034 0.0022881729 -0.0012983142    94.609907   -9135.6898   -368.00066 
  361000       0.1805    301.91262   0.11697813 -0.0010836117 -0.00049683617    97.524148   -9136.0428   -384.65895 
  362000        0.181    299.42409   0.12370395 0.0032578974 -0.0018904685    96.720301   -9136.1757   -416.90459 
  363000       0.1815    299.79398   0.12048132 -0.00058339079 -0.0002218929    96.839782   -9135.6965   -398.92013 
  364000        0.182    297.62914   0.11457949 -0.00065464545 0.0005671381    96.140493   -9134.6315   -381.63995 
  365000       0.1825    296.73306   0.10408742 -0.002494315 0.0011259176    95.851041   -9135.9359   -342.39675 
  366000        0.183    298.73651  0.098107571 -0.0032013784 0.0027067325    96.498198   -9137.5641   -325.37642 
  367000       0.1835    301.39768  0.095482527 0.0011033758 0.0013263722    97.357811   -9138.3172   -326.37425 
  368000        0.184    298.45158  0.080107162 0.0024214437 -0.0024404653    96.406157   -9139.9157   -266.96047 
  369000       0.1845    296.87681  0.069937242 -0.0022530947 0.0025149433    95.897474   -9136.0727   -233.99697 
  370000        0.185    303.28953  0.059001038 0.00029037435 0.00044789936    97.968917   -9137.4605   -199.13104 
  371000       0.1855    300.42734   0.05896171 0.0031600624 -0.0019057818     97.04437   -9136.6016   -200.71997 
  372000        0.186    300.38141  0.053125093 0.00026385624 0.0012449976    97.029535   -9137.3625   -182.11316 
  373000       0.1865    296.65028  0.054491672 0.00023355206 -0.00093069883    95.824299   -9137.2639   -179.31508 
  374000        0.187      299.772  0.059182584 -0.00087448629 -2.8474856e-05    96.832682   -9142.0215   -194.26541 
  375000       0.1875    303.61074  0.064137499 -0.00072951469 7.9499568e-05    98.072677   -9143.4047   -211.62495 
  376000        0.188    300.02775  0.066273508 -0.00058583269 0.00037037546    96.915294   -9142.5778    -220.1935 
  377000       0.1885     294.0323  0.074774305 0.00068199651 -0.0022632211    94.978636   -9142.8727   -243.97694 
  378000        0.189    296.38134  0.084099789 -0.0033235893 0.0050490981    95.737426   -9140.3122   -286.08433 
  379000       0.1895    302.99784  0.084704427 0.0013595812 0.00013319977    97.874697   -9144.0419   -287.32403 
  380000         0.19    297.75448  0.087784775 0.0034328784 0.00017236422    96.180981   -9141.4595   -304.63339 
  381000       0.1905    294.48181  0.085255881 0.0026836564 0.00070916624    95.123838   -9143.4098   -295.49568 
  382000        0.191    305.79642  0.086134323 0.0021202418 -0.00029983191    98.778698   -9145.9288   -293.18244 
  383000       0.1915    297.98476  0.086419482 0.0006738415 0.0020040928    96.255364   -9144.4944   -296.99139 
  384000        0.192    294.51672  0.087658903 0.0016796785 0.0013245992    95.135115    -9141.121    -302.2106 
  385000       0.1925    303.11571   0.09191123 0.0010962915 -0.00095741123    97.912772   -9144.4398    -306.8337 
  386000        0.193    298.97048  0.090925393 0.0035388271 -0.0031415076    96.573774   -9142.7328   -304.40904 
  387000       0.1935    296.75993  0.094050555 0.0018672386 -0.00098308337     95.85972   -9142.3623   -316.44903 
  388000        0.194    292.12456   0.09658893 -0.00019553976 0.00085283577    94.362396   -9139.9689   -324.15409 
  389000       0.1945    295.08135   0.10324017 -0.00056302967 0.0024657533    95.317505   -9140.4485   -350.47631 
  390000        0.195    299.98531    0.1090018  0.001516087 0.0010783472    96.901585   -9140.1158   -371.98746 
  391000       0.1955    297.05018     0.106137 -0.001264896 0.0025268843    95.953477   -9140.2028   -357.99661 
  392000        0.196    301.71008   0.10754783 -0.00013415435 0.0022491427    97.458722   -9141.1516   -365.54272 
  393000       0.1965     299.2564   0.11370345 0.0027622325 -0.0011537435    96.666131   -9140.2125   -384.37312 
  394000        0.197    299.85534   0.11282607 0.0018041686 -0.00078698129    96.859603   -9139.6656   -379.47753 
  395000       0.1975    300.28467   0.11597289 0.0019692635 -0.0033971534    96.998284   -9139.6249   -381.81666 
  396000        0.198    300.97527   0.11406221 0.0014244333 -0.0017969215    97.221363   -9140.5303   -378.96573 
  397000       0.1985    299.28004   0.11451447  0.001070789 -0.0012077274    96.673767    -9140.593   -381.25845 
  398000        0.199     301.4214   0.11076924 -0.00070213153 0.0030122396    97.365474   -9140.0672   -376.93116 
  399000       0.1995    303.37775   0.11581439 0.0015503661 0.00024415187    97.997416   -9141.2004    -392.0297 
  400000          0.2    299.01722   0.11419238 0.00055376235 -0.00015912014    96.588872   -9139.6733   -381.95675 
  401000       0.2005    299.11215    0.1173677 0.0010122526 -0.00079357318    96.619537   -9140.6546   -391.95461 
  402000        0.201    298.48588   0.11128557 -0.0038266571 0.0035435334    96.417238   -9140.4171   -370.00814 
  403000       0.2015    302.67337   0.11497637 -0.0016325427 0.0025584066    97.769887   -9138.7952   -386.34079 
  404000        0.202     300.8539    0.1138826 -5.0691455e-05 0.00022112778    97.182158   -9140.0729   -380.17678 
  405000       0.2025    299.58612   0.12160146 0.0019984244 -0.00042260489    96.772639   -9139.7478   -410.59094 
  406000        0.203    303.47761   0.11744417 -5.3931674e-05 -0.00019122059    98.029672   -9139.4869    -390.6634 
  407000       0.2035    301.27488   0.11522453 -0.0024001413 0.00026619728    97.318143   -9138.0155   -376.96864 
  408000        0.204    300.85791   0.11330497 0.00085547135 -0.0035758179    97.183453   -9137.8175   -368.61541 
  409000       0.2045    297.25075   0.11454476 -0.0011596089 8.9002981e-05    96.018266   -9136.7519   -378.24718 
  410000        0.205    303.19823   0.11873777 -0.002917678 0.0043630707    97.939427   -9137.8016   -400.61053 
  411000       0.2055    301.60562   0.11410178 0.0020027092 0.00083346441     97.42498   -9138.6442   -389.79318 
  412000        0.206    301.89117   0.11313186 -0.00086071341 0.0024416979    97.517218   -9137.6909   -382.37616 
  413000       0.2065    303.07484    0.1100265 0.0020899551 -0.0005036902    97.899568   -9137.9105   -372.04255 
  414000        0.207    299.33538   0.10608891 0.0029489125 -0.0023936939    96.691645   -9137.5905   -355.48043 
  415000       0.2075    297.55371   0.10410916 -0.00083171514 0.0011272502    96.116127   -9135.9665   -348.01564 
  416000        0.208    301.95641    0.1030638 -0.0017577149 0.0034516145    97.538292   -9137.0751   -349.19232 
  417000       0.2085    301.80038   0.10269093 0.0033301724 -0.0036380027     97.48789   -9137.7183     -341.277 
  418000        0.209    303.90684  0.091586442 -0.0016579498  0.002607342    98.168323   -9137.6366   -308.45278 
  419000       0.2095    307.29045  0.091657233 -0.0013289144 -0.0010576742      99.2613   -9139.7958   -297.56882 
  420000         0.21    295.70939  0.081456781 -0.003445468 0.0021411862    95.520374   -9138.2201     -267.175 
  421000       0.2105      301.055  0.072280006 0.0001168008 0.00062107729    97.247118   -9138.5797   -243.39295 
  422000        0.211    305.92304  0.065363288 -0.0039220875 0.0015842943    98.819596   -9140.0956   -210.08498 
  423000       0.2115    301.72875  0.064861856 0.00013450491 0.00097765764    97.464753   -9139.7795    -219.9134 
  424000        0.212    295.58441  0.061906288 -0.0042199254   0.00122807    95.480001   -9139.2618   -196.38144 
  425000       0.2125    298.99513  0.053075687 -0.0027632648 -0.00081046359    96.581735   -9139.9567   -165.00653 
  426000        0.213     299.2048  0.053067242 0.0011390976 -0.00071166361    96.649464   -9138.8843   -178.31559 
  427000       0.2135    304.25865  0.053961398 -0.0021714642 0.0041066133    98.281963   -9140.2441   -186.32182 
  428000        0.214     304.3126  0.053696147 0.00040770846 0.00031683776    98.299391   -9139.9996   -181.40231 
  429000       0.2145    302.74193  0.054871559 0.0022466669 -5.321462e-05    97.792032   -9140.2282    -190.2167 
  430000        0.215    294.63264  0.058651038 0.0019974261 0.00021028222    95.172559   -9138.3853   -202.86249 
  431000       0.2155    300.71166  0.066716514 -0.00010353406 0.00017561216    97.136213   -9139.6025   -222.62864 
  432000        0.216    301.19671  0.071293537 -0.0014116974 -0.00016492364    97.292894   -9139.4214   -232.38972 
  433000       0.2165    298.72883  0.072425968 0.0023382846 -0.00084672304    96.495717    -9139.935   -246.39176 
  434000        0.217    297.67455  0.076956838 9.8668528e-05 0.00017129808    96.155161   -9139.0292   -257.42268 
  435000       0.2175    299.42281  0.081822477 0.00013387677 0.00058645385    96.719885   -9138.3111   -275.14269 
  436000        0.218    297.20689  0.081934353 -0.0012057052 0.0034182579    96.004099     -9137.07   -280.48968 
  437000       0.2185    300.12521  0.082502162 0.00096356214 -0.0010388742    96.946776   -9138.6578   -274.75617 
  438000        0.219    297.06961  0.083645047  0.001027271 0.0001072363    95.959754    -9139.285   -282.59851 
  439000       0.2195    304.08005  0.078820511 0.00048832908 0.0010006841    98.224272   -9138.5335   -267.69841 
  440000         0.22    304.27055  0.073596717 -0.0016506604 0.00010927675    98.285809   -9139.5455   -240.18444 
  441000       0.2205     298.5297  0.069723763 0.0022061919 -0.0033816106    96.431393   -9138.0308   -228.49448 
  442000        0.221    300.14274  0.063911292 -0.0005057883 0.00058215145    96.952438   -9137.4956   -213.29218 
  443000       0.2215    302.17946  0.053541616 -0.0029477986 0.0024226007    97.610344   -9140.3295   -176.72139 
  444000        0.222    306.56794  0.045515099 -0.00083058117 -0.00070107827    99.027913   -9142.8353   -146.61146 
  445000       0.2225    302.86126  0.038455331 0.00029937876 0.00090322707    97.830579   -9143.4052   -132.19312 
  446000        0.223    300.49124  0.028866698 -0.0015458503 0.0035158278    97.065011   -9141.0799   -102.78892 
  447000       0.2235    293.45755  0.022393162 0.00060164789 0.0017160923     94.79298   -9138.5285   -82.369675 
  448000        0.224    303.93278  0.028461061 0.0015199297 0.00093691609    98.176702   -9141.3817   -103.05969 
  449000       0.2245    302.01762  0.023614829  0.002092705 -0.0018163865    97.558064    -9141.317    -79.63716 
  450000        0.225     302.2752  0.026586119 -0.0018047462 0.0015774161    97.641268   -9141.1265   -87.862631 
  451000       0.2255    299.85008  0.028799893 -0.0017278836 0.0004436736    96.857905   -9141.4528   -91.718944 
  452000        0.226    301.42999  0.038608822 0.00037031107 -0.0014775948    97.368247   -9140.6345   -125.00513 
  453000       0.2265    295.33588  0.044481414 -0.001435664 -0.0015781217    95.399723   -9138.4868   -138.22543 
  454000        0.227    300.25458  0.055540562 -0.0018528471 0.00074566508    96.988566   -9141.4894    -181.4446 
  455000       0.2275    303.03338  0.059128551 5.8093716e-05 -0.0024376103    97.886178   -9140.7942   -189.16345 
  456000        0.228    300.34364   0.06101495 -0.00079120736 -0.00099612037    97.017335   -9139.6758   -197.42541 
  457000       0.2285    298.74432  0.060958529 0.0012432204 0.00032776722    96.500721   -9140.2428   -208.43172 
  458000        0.229    299.42854  0.053928215 -0.0017755278  0.001855018    96.721737   -9140.7009   -180.02568 
  459000       0.2295    298.52122  0.054866223 0.00031087918 0.0011924335    96.428653   -9139.1831   -187.89845 
  460000         0.23    297.07154  0.052511802 0.0043901024 -0.0025022317    95.960377   -9138.8479   -181.33224 
  461000       0.2305      303.287  0.047861692 0.0019012427   -0.0014718    97.968102   -9140.2806   -160.97045 
  462000        0.231    301.25192  0.040695986 0.00063487548 -0.0022094496    97.310727   -9139.7382   -130.40471 
  463000       0.2315     300.4557  0.038449897 0.0017901172 -0.0013369749    97.053532   -9139.0368    -129.6768 
  464000        0.232      305.293  0.039043963 -0.00014708138 0.00026870972    98.616082   -9140.1628   -130.55197 
  465000       0.2325    299.97946  0.041244205 -0.0012019843 0.0010061001    96.899696   -9138.1173   -136.82773 
  466000        0.233    300.02101  0.052474824 0.0013713731 9.427383e-05    96.913117   -9137.6363   -179.80157 
  467000       0.2335    301.60324  0.061216838 0.00019000198 -0.00048628839     97.42421   -9138.2556   -203.06851 
  468000        0.234    300.77271  0.064358542 0.0014653477 -0.0030020722    97.155933   -9137.3208   -209.40606 
  469000       0.2345    297.20382  0.075542925 -0.00015959701 0.00090591947    96.003106   -9137.1944   -254.29749 
  470000        0.235    304.99189   0.07536799 -0.0020702619 0.00083178193    98.518818    -9137.001   -247.09837 
  471000       0.2355    301.30583  0.074397068 0.0012762702 -0.0022528973    97.328143   -9136.6306    -244.7348 
  472000        0.236    301.47252  0.076624046 -0.00057470533 0.0011195849    97.381986   -9137.2492   -257.22975 
  473000       0.2365    299.54261  0.076637545 0.00016847649 0.00076392045    96.758585   -9136.7482   -258.56647 
  474000        0.237    302.77692  0.071776888 -0.00091430008 -0.0003503917    97.803336   -9138.5061   -235.04065 
  475000       0.2375    306.30434  0.068146063 0.0021341799 -0.0038863336    98.942766   -9137.4487   -221.31303 
  476000        0.238    296.39901  0.056806645 0.0017460013 -0.0030457071    95.743135    -9137.653   -185.02313 
  477000       0.2385    297.38521   0.04364334 -0.0020199053 -0.00045617346    96.061699   -9137.9778   -137.22421 
  478000        0.239    300.39664  0.032409175 -0.0027460439 0.0012714349    97.034453   -9138.3089   -103.11522 
  479000       0.2395    303.98491  0.027569662 0.0011845007 -0.0011118812    98.193542   -9138.5572   -92.140939 
  480000         0.24    295.86313  0.020045879 -0.00036331134 0.0020823542    95.570034   -9138.7878    -72.54974 
  481000       0.2405    294.05329  0.018315009 -0.0019038682 0.0041391166    94.985419   -9138.5384   -68.500859 
  482000        0.241    300.52154  0.010501603 -0.002064773 0.0027966171    97.074798   -9140.8489   -37.444825 
  483000       0.2415    295.19277  0.011751759  0.001534618 -0.00060998128    95.353494   -9138.8897   -42.254653 
  484000        0.242    300.37209  0.013291926 0.00087728114 -3.5026914e-05    97.026525   -9138.3935   -47.113934 
  485000       0.2425    297.33792   0.02271934 0.00050903985 0.0024498079    96.046421   -9136.9192   -85.593961 
  486000        0.243    296.93137  0.023241229 -0.0012612135 0.0031722754    95.915097   -9137.5658    -83.84097 
  487000       0.2435    298.50231  0.031942011 0.00047223347 0.00083081252    96.422544   -9138.3931   -110.81686 
  488000        0.244    297.10425  0.032679899 0.0046487029 -0.0012478624    95.970941   -9137.1635   -120.26913 
  489000       0.2445    299.05462  0.038664135 1.2264495e-05 -0.001626005    96.600951   -9138.1622   -123.50132 
  490000        0.245    303.78808  0.048931224 -0.00084715459 0.0013524431    98.129961   -9138.4261   -164.78837 
  491000       0.2455    300.98185  0.051266309 0.0038707491 -0.001679328     97.22349    -9138.689   -178.19243 
  492000        0.246    296.32564  0.047056785 0.0011699418 0.0012542166    95.719436   -9136.1499   -164.93648 
  493000       0.2465    302.66809  0.042478021 0.0022479748 -0.0011371645    97.768179   -9138.3999    -145.2961 
  494000        0.247     302.4354  0.041218739 -0.0034664404 0.0031855611    97.693018   -9137.5049   -136.45953 
  495000       0.2475    298.49916  0.031210461 0.00098648642 -0.0014347895    96.421528   -9138.1232   -102.54053 
  496000        0.248    295.63758   0.02048661 -0.0015721381 0.0021368964    95.497176   -9136.4339   -70.171226 
  497000       0.2485    301.29414   0.01392364 0.00070707344 -0.00013716263    97.324364   -9137.7667   -48.311837 
  498000        0.249    295.76749 0.0077164493 0.0038543124 -0.000934413    95.539142   -9137.6254   -35.454496 
  499000       0.2495    296.20138 -0.0083446807 -0.0024590503 0.0040862098    95.679298   -9139.0394    22.391737 
  500000         0.25    299.94941 -0.017437718 0.00086270158 -0.00035220355    96.889988   -9138.4952    56.424065 
  501000       0.2505     299.5139 -0.023960372 0.00036921182 -0.0026598692    96.749309   -9139.2794    87.503432 
  502000        0.251    300.72544  -0.02041009 -0.0024193965 0.00046233652    97.140663   -9139.2817    74.557165 
  503000       0.2515    303.07637 -0.020191138 -0.0034325855 0.0010492778    97.900064   -9140.4803    75.248153 
  504000        0.252    303.71152 -0.016132308 0.0011158955 -0.002178494    98.105231   -9141.1927    57.316354 
  505000       0.2525    301.62052 -0.013082187 -0.0017601308 0.0012554863    97.429792   -9138.4153     45.28944 
  506000        0.253    301.73236 -0.0058581934 -0.00052079886  0.001979442    97.465919   -9139.4486    14.665168 
  507000       0.2535    297.70076 0.0035512822 -0.00057437686 0.0016354308    96.163626   -9137.5302   -15.374454 
  508000        0.254    300.51066  0.010449979 -0.0018527451 0.0021463043    97.071286   -9138.4646   -35.811795 
  509000       0.2545    300.95718  0.015782049 0.0010483851 -0.00099411388     97.21552   -9137.2943   -52.787735 
  510000        0.255    301.88526  0.022025173 0.00012287279 0.0010078872    97.515311   -9138.7154   -77.186442 
  511000       0.2555    299.89799  0.024872315 0.00056708341 -0.00030124301    96.873378   -9138.3161   -83.793852 
  512000        0.256    300.90949  0.024094648 -0.0016621137 0.0019576866    97.200116   -9137.7505   -81.300735 
  513000       0.2565    295.53783    0.0150895 -0.0014347907 0.00077154885    95.464957   -9138.3157   -48.087526 
  514000        0.257    302.13007 0.0081532022  0.002976734 -0.0032581977    97.594387   -9138.0449   -26.239128 
  515000       0.2575    304.24199 0.0057654187 0.00038516399 -0.00080361392    98.276583   -9139.6602   -17.823229 
  516000        0.258    294.69899 0.0015755971 -0.0013423477 0.0025730651    95.193993   -9137.1473   -9.3543817 
  517000       0.2585    296.77383 -0.0044839096 0.0019757352 0.00066455903    95.864209   -9137.8156    6.1453847 
  518000        0.259    296.28226 -0.019827632 0.0012101997 -0.00026723221    95.705423   -9138.0855    62.948883 
  519000       0.2595     306.2638 -0.020977517 0.0014057453 0.00030871043    98.929669   -9140.2451    64.210204 
  520000         0.26    298.00737 -0.021077933 -0.0020267176 0.0017792212    96.262668   -9138.0408    71.084765 
  521000       0.2605    298.79443 -0.017726465 0.00042764973 0.0011313293    96.516906   -9137.2397    53.891621 
  522000        0.261    300.17057 -0.011654693 0.0014203201 0.0007134074    96.961428    -9137.756    31.736553 
  523000       0.2615    295.36249 -0.014891416 0.0020514212 -0.00014178448    95.408317    -9137.706    43.272599 
  524000        0.262    293.90704 -0.0055493718 -3.5838409e-06 0.0010873291    94.938177   -9136.9781    14.885422 
  525000       0.2625    296.39866 0.0034067718 -0.0010710114 0.00012150473    95.743022   -9138.9155   -8.1908838 
  526000        0.263    303.71784  0.012000458 -0.0010722962 -0.00060027063     98.10727   -9139.7002   -34.426305 
  527000       0.2635    300.68576  0.016108708 -0.0024940346 0.00042963428    97.127844    -9138.993   -46.814359 
  528000        0.264    298.10426  0.018604459 -2.3938291e-05 -0.0011111427    96.293966   -9137.9362   -58.231261 
  529000       0.2645    300.07622  0.020394201 0.00046527756 0.00078434194    96.930952   -9138.4227   -72.146069 
  530000        0.265    300.98313  0.022920096 -0.0021962419 0.0015546518    97.223904   -9137.8099   -74.261685 
  531000       0.2655    301.57181  0.014913163 0.0013818629 -0.00082528452     97.41406   -9138.8875   -51.565805 
  532000        0.266    301.74734 0.0078689863 0.00080763366 -0.0021472747    97.470759   -9137.5992   -21.764484 
  533000       0.2665    301.37591 0.00033273017 0.00074124298 -0.0030456302     97.35078   -9139.7109    6.5721902 
  534000        0.267    298.91124 -0.002740422 -0.0023763076 0.0025319634    96.554637   -9138.5774    8.6158875 
  535000       0.2675    299.74353 -0.012048907 0.0034821988 -0.001568717    96.823485   -9140.2527    33.784752 
  536000        0.268    302.44769 -0.020453017 0.0014146217 2.6128238e-05    97.696986    -9139.847    63.374224 
  537000       0.2685    303.07727 -0.023915302 0.00039657295 -0.00057033032    97.900354   -9139.3447    80.296866 
  538000        0.269    299.85989 -0.020489083 0.00027434183 0.00042855912    96.861072   -9139.7869    65.953941 
  539000       0.2695    303.08701 -0.019168471 -0.00032300255 -0.001085047    97.903499   -9138.2575    68.588401 
  540000         0.27    296.33763 -0.018075823 0.0024099167 -0.00093020671    95.723309   -9138.5235    55.320378 
  541000       0.2705    301.74813 -0.010326731 -0.0030950009 0.0031375586    97.471012   -9140.0554    34.280576 
  542000        0.271    294.53615 -0.0015281233 0.00096717536 -3.050364e-05    95.141391   -9137.8614    1.9715052 
  543000       0.2715     298.4828  0.011245827 0.00043941644 0.0016943957    96.416244   -9137.1243   -44.598796 
  544000        0.272    302.66172  0.015088396 -0.00079965272 -0.00021394091    97.766124   -9137.0732   -46.916009 
  545000       0.2725     297.0685  0.014107764 -0.0018763091 -0.00027456754    95.959393   -9137.1617   -39.856292 
  546000        0.273     302.8156  0.015597261 -0.00094414835 5.3276728e-05    97.815829   -9137.2232   -49.021299 
  547000       0.2735    303.37021  0.023735896 0.00019620664 -1.3035066e-05    97.994981   -9138.2367   -79.730226 
  548000        0.274    298.82113  0.021869872 -0.0002991383 0.0011034498    96.525531    -9138.583   -75.580612 
  549000       0.2745    297.69232  0.019851425 0.0014126283 -0.00026245853    96.160902    -9138.148   -70.005317 
  550000        0.275     300.6751 0.0065822079 -0.0033936788 0.0004126973    97.124401   -9139.7254   -12.004088 
  551000       0.2755    300.75152 0.0018022991 -0.0028519657 0.00057696912    97.149088    -9139.292    1.5756581 
  552000        0.276    298.95132 -0.0068138281 0.0028848692 -0.001774051    96.567585   -9138.9994    19.010033 
  553000       0.2765    299.49788 -0.015308293 -0.00062220677 -0.00013960653    96.744136   -9138.2325     53.56702 
  554000        0.277    302.59578 -0.021315889 -0.0016433353 0.0020250956    97.744822   -9138.9822    69.780428 
  555000       0.2775    298.75639 -0.023102779 0.0024512157 -0.0027374146    96.504618   -9138.3733     77.96326 
  556000        0.278    297.29443 -0.023506418 -0.00048835552 -0.00027677646    96.032374   -9138.3171    80.905165 
  557000       0.2785    299.17423 -0.019894677 0.0013779631 -0.0022096535    96.639589   -9139.2502    69.087892 
  558000        0.279    297.28427 -0.014824356 0.00019882238 -0.0012152957    96.029094   -9137.3184    52.802765 
  559000       0.2795    297.09625 -0.011999062 0.0007669407 0.0011124091    95.968359    -9139.041    33.732373 
  560000         0.28    300.16219 -0.00047121647 -0.0013218399 0.0022839228    96.958722    -9138.651   -1.6362213 
  561000       0.2805    298.41144  0.010728498 0.0012295981 0.0015162623    96.393191   -9138.6832   -44.914527 
  562000        0.281    303.84237  0.012645967 0.0014333931 0.00013747604    98.147496   -9140.6356   -47.389454 
  563000       0.2815    303.52456  0.018066388 0.0015037841 0.00053571715    98.044839    -9138.277    -67.01963 
  564000        0.282    298.77441   0.02162395 0.00020629673 0.0019124403    96.510439    -9138.366    -79.14229 
  565000       0.2825    300.70982  0.022598053 -0.0012112748 0.0015892012    97.135617   -9137.4109   -76.586598 
  566000        0.283     294.9243  0.019448217 0.0012899996 -0.0013395039    95.266772   -9137.3053   -64.662377 
  567000       0.2835    299.45269  0.012545448 -0.0014203227 0.00095352496    96.729539   -9137.8423   -40.262167 
  568000        0.284    301.49639 0.0089100484 0.0011846042 -0.0007583049    97.389696   -9137.9866   -31.121159 
  569000       0.2845    300.19004 0.0033985365 0.0036920588 -0.0023024636    96.967716   -9137.7175   -15.960439 
  570000        0.285    299.35343 -0.0072113665 0.00028857546 -0.00017725236    96.697475   -9137.9993    23.666811 
  571000       0.2855    296.98004 -0.011657484  -0.00421605   0.00299448     95.93082   -9138.1647    42.930179 
  572000        0.286    301.46228 -0.020587019 0.0015661074 -0.00049157492    97.378677   -9138.1392    65.041622 
  573000       0.2865    301.67202  -0.01936541 0.00066716042 -0.00017601659    97.446427   -9138.7242     62.91422 
  574000        0.287     297.5749 -0.018493452 0.00051234764 -0.00069520182    96.122971   -9137.6748    62.254354 
  575000       0.2875    298.92834 -0.017774993 -0.0014130967 0.0010526691    96.560163   -9137.7675    60.451403 
  576000        0.288    297.71463 -0.014389042 0.00083915444 -0.0024064434    96.168107   -9137.6178    53.187769 
  577000       0.2885    300.58065 -0.0061563687 -0.00037274707 -0.001008013    97.093892   -9138.0121    25.123763 
  578000        0.289    293.88322 -0.0016541381 -0.002451719 0.0017092172    94.930483   -9137.2178    7.9887999 
  579000       0.2895    299.36223 0.0055329821 0.00023031462 -0.00080401676    96.700316   -9137.2474   -16.530933 
  580000         0.29    300.58301 0.0086034239 0.00073278895 -0.00027397284    97.094656   -9139.1549   -30.207467 
  581000       0.2905    298.82232  0.016939659 -9.7535992e-05 0.00032964295    96.525917   -9137.4849   -57.239219 
  582000        0.291    299.10428  0.021376487 0.00012835092 -0.0011593404    96.616995   -9137.5004   -67.818327 
  583000       0.2915    302.10588  0.021451209 -0.0013763936 -5.4667966e-05    97.586576   -9137.8848   -66.733824 
  584000        0.292     300.3378  0.014422932 0.00020872562 5.3294163e-05    97.015446   -9139.0584   -48.949838 
  585000       0.2925    298.72654 0.0089860661 3.1542292e-06 -0.0011473644    96.494977    -9138.039    -26.13952 
  586000        0.293     299.0525  0.004023468 -0.0022086744 -0.00047011544    96.600269   -9138.5351   -4.4822606 
  587000       0.2935    299.17302 -0.0028277583 0.00024377844 -0.0016787217    96.639198   -9138.2325    14.209005 
  588000        0.294    300.77763 -0.0069645735 0.00053070108 -0.0011391125    97.157523   -9139.4529    25.243283 
  589000       0.2945    299.61695 -0.014232451 -0.00057765297 -0.00083394165    96.782596   -9139.9117    52.146817 
  590000        0.295    297.42406 -0.017456155 -0.00015866289 -0.00071421459    96.074248   -9137.2623    61.096774 
  591000       0.2955    302.50857 -0.018140548 0.00046592016 -0.0013052473    97.716653   -9139.6443    63.266249 
  592000        0.296    308.92588 -0.016507837 -0.00085959774 -0.00025402871    99.789577   -9139.7966    58.738213 
  593000       0.2965    301.14391 -0.015184776 -0.00010364508 -0.00042576834    97.275838   -9139.1788    52.380632 
  594000        0.297    300.96112  -0.01197544 0.0011734349 -0.0030939223    97.216792   -9138.3852    46.319758 
  595000       0.2975    303.30183 -0.0025139999 -0.0028775357 0.0013575868    97.972893   -9139.1832    13.446496 
  596000        0.298    297.16977  0.003579936 -0.00027620369 0.00093069845    95.992106   -9139.1355   -14.114769 
  597000       0.2985    298.49482 0.0092624834 0.0019445289 -0.0018882879    96.420126   -9139.0956   -31.062415 
  598000        0.299    304.39896  0.013147159 0.0010340859 -0.0019872136    98.327287   -9140.4305    -40.64677 
  599000       0.2995    301.62336  0.012275152 -0.00022005574 0.00015843954    97.430711   -9138.9171   -40.711785 
  600000          0.3    298.54756   0.01527684 -0.00086733196 -0.00051730653    96.437163   -9137.9189   -46.307338 
  601000       0.3005     307.1186  0.017368422   -0.0016211 -0.0004800697     99.20579   -9138.1879    -50.89084 
  602000        0.301    300.43267  0.014344742 -0.00038963306 -0.0013779789    97.046093   -9138.7308   -41.923768 
  603000       0.3015    300.40533 0.0070478098  0.001375842 -0.0028248502    97.037261   -9137.2524   -18.662672 
  604000        0.302    301.99986 0.0017916397 -0.0029897741 2.7925714e-05    97.552326   -9139.8141    3.9006957 
  605000       0.3025    302.71168 -0.0081609232 -0.0010811386 -0.0023903699    97.782261   -9139.3666    38.774772 
  606000        0.303    298.93917 -0.0094485094 -0.0012565984 0.00013508454    96.563659   -9139.0498    35.233411 
  607000       0.3035    300.38259 -0.013449864 0.00037913765 -0.0022933942    97.029915   -9139.1959    51.213734 
  608000        0.304    295.18729 -0.015270738 0.00051415005 -0.00057227131    95.351723   -9139.9083    51.096199 
  609000       0.3045    293.41756 -0.016656922 -0.0013710508 0.0010317899    94.780064   -9139.0623    56.653941 
  610000        0.305    305.09852 -0.014710981 0.0011207099 -0.0011387196    98.553261   -9141.1803    49.096635 
  611000       0.3055    296.44484 -0.011359493 5.2891825e-05 0.00084751138    95.757938   -9138.5359    34.863633 
  612000        0.306    295.79597 -0.0079874543 0.0013224308 -0.00081521058     95.54834   -9138.9772    24.934114 
  613000       0.3065    295.93083 -0.0010466817 0.0010017216 -0.0019205786    95.591902    -9138.852    6.5517957 
  614000        0.307    298.76693 0.0050000824 -0.00071447365 -0.0018165034    96.508024   -9139.3113   -8.2303512 
  615000       0.3075    296.12128  0.011149889 -0.00086618331 -1.6199887e-05    95.653424   -9137.3658    -34.22502 
  616000        0.308    298.46734  0.017594999 0.0011045289 -0.0015195414    96.411248   -9137.8871   -57.266624 
  617000       0.3085      302.537   0.01709266 0.00036578867 -0.00011860791    97.725836   -9138.9289    -57.79947 
  618000        0.309    299.56878  0.013607452 0.0017063553 -0.0015768726    96.767039   -9137.9552   -45.789784 
  619000       0.3095    294.78602  0.015889374 0.0016345679 -0.00042142931    95.222106   -9137.1759   -57.008375 
  620000         0.31    299.31711  0.014069954  0.001916119 -9.7762397e-05    96.685744   -9138.0552   -52.961035 
  621000       0.3105    295.84751   0.00715957 -0.0015719131  0.001519291    95.564989   -9140.2354   -23.689826 
  622000        0.311    302.80507 0.00038430137 -0.0034134807 0.0022132726    97.812426   -9140.1855    2.7196891 
  623000       0.3115    301.81674 -0.0041880499 0.00072495664 -0.0010516471    97.493177   -9140.6766    15.049135 
  624000        0.312    299.76957 -0.007342311 -0.00029052716 -0.0016300762    96.831896   -9139.7115    30.876381 
  625000       0.3125    304.34791 -0.013914292 -0.0022671346 0.0010417208    98.310798   -9139.3139    50.465687 
  626000        0.313    301.71738  -0.01577511 -0.00096956557 -0.00078651506     97.46108   -9139.1659    58.437302 
  627000       0.3135    298.89773 -0.018013397 3.6721663e-05 -0.00079770172    96.550275   -9138.5705    62.581257 
  628000        0.314    301.46109 -0.015164202 0.00074025091 -0.00014908779    97.378295   -9138.8675    48.576798 
  629000       0.3145    300.47494 -0.013772056 0.00085730182 -0.0014775348    97.059747   -9139.6739    47.974298 
  630000        0.315    296.51099 -0.0074185719 -0.00073126086  0.000146352    95.779307   -9138.6192    26.678269 
  631000       0.3155    301.92922 -0.0043164827 -0.00035330254 -0.0012032436     97.52951   -9138.5583    19.576763 
  632000        0.316    299.04015 0.00024179358 -0.00026466852 -0.00014714427     96.59628   -9138.7323   0.56673069 
  633000       0.3165    301.17099 0.0098993484 -0.001697851 0.0022712412    97.284585   -9139.9831   -34.909129 
  634000        0.317    305.13915  0.012990386 -0.0017882377 0.00049681586    98.566383   -9139.7826   -38.996548 
  635000       0.3175    299.18054  0.016971139 0.0005929255 -0.0016346255    96.641628   -9137.3501   -53.098129 
  636000        0.318    300.42704  0.017705844 0.0013986084 -0.00096838601    97.044272   -9139.2542   -60.453553 
  637000       0.3185    302.08778  0.012413483 -0.0016555333 0.0013559958    97.580728   -9138.8184    -40.37982 
  638000        0.319    296.22447  0.013967258 0.00018542321 0.0011740921    95.686753    -9138.199   -51.089245 
  639000       0.3195    299.39521  0.010604475 0.0010279905 0.0023327529     96.71097   -9138.1178   -46.550729 
  640000         0.32    296.67689 0.0048796527 0.0029985896 -0.00084854667    95.832896   -9138.0098   -23.432319 
  641000       0.3205    301.45636 -0.0019445246   0.00181796 -1.1918795e-05    97.376767    -9139.772   0.46161141 
  642000        0.321    300.71552 -0.0096652234 0.0021966796 -0.00034833123     97.13746   -9139.6349     26.05625 
  643000       0.3215    303.46955 -0.0097266384 -0.0014064708  0.001940264    98.027069   -9141.3798    30.642817 
  644000        0.322    296.46474 -0.014597024 -0.0024750712 0.0031737867    95.764366   -9138.3367    46.327695 
  645000       0.3225    301.49537 -0.015618793 -0.00077270815 0.00062522266    97.389367   -9140.9403    52.554261 
  646000        0.323    301.99711 -0.012457935 -0.00041090611 0.0021015035    97.551439   -9140.0744    35.891125 
  647000       0.3235    303.46434 -0.009435445 -0.00086098353 0.0013049944    98.025384   -9139.9401    29.971447 
  648000        0.324    302.49257 -0.0050840259 -0.0011695483 0.0011513398    97.711482   -9141.1493    17.007448 
[...]
  839000       0.4195    302.97765 0.0053699577 -0.00059607636 -0.00041376848    97.868173   -9139.4994   -14.533709 
  840000         0.42    298.88747 0.0085000019 4.9092796e-05 -0.00022419193    96.546961   -9137.0255   -27.749676 
  841000       0.4205    297.96035 0.0068631197 -0.0003871651 0.00090301471     96.24748   -9137.7967   -24.596564 
  842000        0.421    302.66208 0.0020245528 -0.00063192303 0.0012933037     97.76624   -9138.7125   -8.9531118 
  843000       0.4215     304.0119 -0.0028785473 -0.00044296766 0.0014429258    98.202258    -9139.527    6.2619639 
  844000        0.422    298.13384   -0.0060493 -0.00016359295 0.00067649405    96.303523   -9137.0578    18.454663 
  845000       0.4225    299.23513 -0.0047214542 -6.0060123e-05 0.00057298346    96.659261   -9139.3839    14.028436 
  846000        0.423    301.15292 -0.0083024608 -0.00081928922 0.00044200674    97.278749   -9140.2751    28.932478 
  847000       0.4235    301.14546 -0.0099043483 -0.0015150055 0.0012868724    97.276337   -9139.1274    33.774938 
  848000        0.424    303.68349 -0.010190714 -0.00086747742 0.00045469904    98.096175   -9140.0568    35.344974 
  849000       0.4245    302.18411 -0.0043209069 -0.00034658132 -0.00022735472    97.611846   -9139.7195    16.316143 
  850000        0.425    297.70868 0.00093255058 -0.00046931811 0.00026974475    96.166188    -9139.986   -2.4432574 
  851000       0.4255     301.9038 0.0014404851 0.00063761695 -0.00052248176    97.521297   -9139.2334   -5.1854008 
  852000        0.426    297.30748 0.0039980368 0.0017932165 -0.00072683474     96.03659   -9137.6084   -16.881395 
  853000       0.4265    304.09575  0.006843001 0.0020442312 -0.00064651452    98.229346   -9139.6797   -27.469059 
  854000        0.427    300.37338  0.011960733 0.0015685878 -0.00028285278    97.026941    -9139.046   -44.154893 
  855000       0.4275    305.33261 0.0093028383  0.001189251 -0.00027098819    98.628877   -9139.2648   -34.070337 
  856000        0.428    299.96299 0.0067622211 -0.00040475406 0.00053969779    96.894375   -9139.6392   -22.990549 
  857000       0.4285    301.85548 0.0034278081 -0.0011434746 0.0015734205    97.505689     -9139.58    -12.85918 
  858000        0.429    296.53387 0.0025961633 -0.00068355446 0.00090549487    95.786699   -9139.5166   -9.3936791 
  859000       0.4295    302.70556 -0.00029463197 -0.0015178965 0.00098561494    97.780285   -9140.4945    2.7563785 
  860000         0.43    300.09594 -0.0064809603 -0.0013122473 0.00099478802    96.937321   -9140.4211    22.661399 
  861000       0.4305    302.86904 -0.0089007971 -0.0012183019 0.00085822528     97.83309   -9141.3422    30.869579 
  862000        0.431    301.25024 -0.0088476994 -0.0018564374 0.00085030407    97.310183   -9139.2568    32.846109 
  863000       0.4315    300.37865 -0.007340963 -0.0017463277 0.0017716243    97.028642   -9138.7163    24.385555 
  864000        0.432    300.24698 -0.0067878271 -7.9939722e-05 0.0010488993    96.986111   -9137.4892    19.396225 
  865000       0.4325    298.26575 -0.0048437716 0.0019135278 -0.00049380127    96.346132   -9138.1299    11.413484 
  866000        0.433    303.62735 0.00058333072  0.000425663 0.00045326606    98.078042   -9138.5592   -4.8741993 
  867000       0.4335    301.82225 -0.00027082139 -0.00032270347 0.00069682078    97.494955   -9138.8723  -0.34431975 
  868000        0.434    298.74635 0.0044061083 -0.00073881707 0.0012255175    96.501374   -9137.9873   -16.309362 
  869000       0.4345    300.24568 0.0066664465 -0.00048825764 0.0016464597     96.98569   -9137.8809   -26.082162 
  870000        0.435    294.77763 0.0083389234 -0.00039725981 0.0012553302    95.219396   -9137.2439   -30.656646 
  871000       0.4355    301.47615 0.0068381754 0.00042813758 -0.00023927097    97.383157   -9139.1502   -23.423473 
  872000        0.436     298.0752 0.0030448807 -0.00047314857 9.5890929e-05    96.284579   -9139.1927   -8.8920769 
  873000       0.4365    296.56881 0.0035744343 0.00065848719 0.00053067757    95.797983   -9137.4467   -15.878664 
  874000        0.437    299.90548 -0.0013702715 0.00012678311 -4.8168701e-05      96.8758   -9139.4735    4.3055235 
  875000       0.4375    302.98582 -0.0018853919 0.0008628623 -0.0011253645    97.870815   -9139.8742     7.159647 
  876000        0.438    306.04922 -0.0056095797 0.00035211315 -0.0011495207    98.860358   -9139.5387    21.356624 
  877000       0.4385     300.5152 -0.0056865542 -0.00025824199 0.00035046729    97.072751   -9138.9589    18.647763 
  878000        0.439    302.97736 -0.0063930141 -0.00048943268  0.001167415    97.868081   -9138.6016    19.050106 
  879000       0.4395    296.86606 -0.0099010155 -0.00093001669 0.00036029523    95.894001   -9137.9528    34.902457 
  880000         0.44    302.57399 -0.0022945218 0.00030781966 -5.8848654e-05    97.737782   -9139.7071    6.8185025 
  881000       0.4405     300.5294 0.00039686609 -0.00030037557 0.00040344057    97.077337   -9139.5736    -1.666437 
  882000        0.441    302.38502 0.0036232067 5.9991353e-05 0.0003923302    97.676744   -9139.0876   -13.585094 
  883000       0.4415    305.94332 0.0041711659 -0.00037561583 0.00063349114     98.82615   -9139.8631   -14.763471 
  884000        0.442    301.61604 0.0023508237 0.00066304414 -0.00011426621    97.428347   -9138.6223   -9.6653386 
  885000       0.4425    301.40404 0.0092446716 0.0014154579 -0.00086741113    97.359867   -9140.6204   -32.642394 
  886000        0.443    298.57172 0.0070717448  0.001267347 0.00042309521    96.444965   -9139.1605    -29.20729 
  887000       0.4435    305.10406 0.0044438328 -0.0002711906 0.0012429536    98.555049   -9139.3072   -18.051986 
  888000        0.444    295.96043 0.0020594997 3.2041944e-05 0.00090230426    95.601463   -9138.1145   -9.9794864 
  889000       0.4445     292.7367  0.001241401 -0.0015754577 0.0013542083    94.560132   -9137.5899   -3.4005053 
  890000        0.445    298.97939 -0.0004146955 -0.0009943283 0.00031312513    96.576652     -9137.72    3.6529956 
  891000       0.4455    303.94361 -0.0065647187 -0.0021153578 0.00029287763      98.1802   -9139.8925    27.957329 
  892000        0.446    298.20275 -0.008022872 -0.0010506095 -3.1932871e-05    96.325782   -9137.4248    30.351381 
  893000       0.4465    298.57798 -0.0080114277 -0.00059092939 0.00028229915    96.446989   -9138.8716    27.733527 
  894000        0.447    301.15389 -0.0055575532 -0.00094383925 -3.1920161e-05    97.279062   -9139.8946    21.777709 
  895000       0.4475    298.26669 -0.0034788732 0.00013309042 -1.8423874e-05    96.346436   -9140.4459    11.214022 
  896000        0.448    301.06039 -0.0041991613 0.00067415083 -3.5419634e-05    97.248859   -9140.0358    11.868101 
  897000       0.4485     297.5551 0.00013208292 0.00041193391 0.00091187228    96.116575   -9138.9279   -4.8529637 
  898000        0.449    300.51061 0.0019686449 -4.185689e-05 6.1435825e-05    97.071268   -9138.4916   -6.6274127 
  899000       0.4495    304.28819  0.005790438 -0.00030494024 0.00081257907    98.291506   -9139.3947   -20.993589 
  900000         0.45    298.96647 0.0069041923 -4.4129607e-05 -0.00013816757    96.572477    -9136.954   -22.406317 
  901000       0.4505    298.21473 0.0055667799 -0.00062811132 0.00083725984    96.329652   -9137.7064   -19.253095 
  902000        0.451    306.75382 0.0098125108 -0.00040688065 0.00067865818    99.087956   -9138.5286   -33.614295 
  903000       0.4515    300.53673 0.0053052232 -0.00013104769 0.00048955232    97.079705   -9137.7995   -18.879093 
  904000        0.452    297.95901 0.0012280868 -5.7141263e-05 0.00072820192    96.247049   -9137.4382   -6.3304914 
  905000       0.4525    296.12394 -0.00054958237 0.00081230943 -0.00016119559    95.654282    -9138.272  -0.33843824 
  906000        0.453    300.85519 0.0016406821 0.00023766608 -4.6465033e-05    97.182575   -9139.7356   -6.1062771 
  907000       0.4535    301.30791 -0.0041445324 0.0003081782 -0.00028484164    97.328814   -9139.7877     13.73732 
  908000        0.454    299.84765 -0.0084382416 -0.00049566891 1.3048607e-05    96.857117   -9140.2014    29.736206 
  909000       0.4545    301.63193 -0.0063291304 -0.00012357935 -0.0004800973    97.433479   -9139.8144    23.109357 
  910000        0.455    295.23521 -0.0035520717 0.00081699693 -0.00074348949    95.367203   -9138.9766    11.595214 
  911000       0.4555    302.48915 -0.0029835229 0.00099693248 -0.00026289392    97.710377   -9140.0258    7.4982812 
  912000        0.456    300.91549 -0.0057369608 0.0013070798 -0.00044413169    97.202054   -9139.4566    16.246709 
  913000       0.4565    299.63043 0.0015770364 0.0004214573 0.00020452692    96.786951   -9137.8272   -7.3434019 
  914000        0.457    296.75886 0.0049497432 -0.00027286083 0.00029991952    95.859373   -9138.2584    -16.58934 
  915000       0.4575     299.9382 0.0038725406 -0.00042508121 0.00040873385    96.886368   -9136.9822   -12.853977 
  916000        0.458    296.39833 0.0037555214 -0.00035437376 4.4299604e-05    95.742914   -9136.8694   -11.484824 
  917000       0.4585    296.62391 0.0048180539 0.0001173394 -0.00034940583    95.815783   -9138.0154   -15.286625 
  918000        0.459    297.86371 0.0068902948 -0.00083935555 0.00037645687    96.216263   -9138.3592   -21.424654 
  919000       0.4595    294.70861 0.0036087615 -0.0005787769 0.00073964624      95.1971   -9138.0763   -12.565436 
  920000         0.46    294.58183 -0.0026546742 -0.00032406059 0.00054859017    95.156147   -9137.6917    8.1004821 
  921000       0.4605    300.28377 -0.0022757931 -6.7671557e-05 0.00050080445    96.997993   -9139.7036    6.1422006 
  922000        0.461    301.03787 -0.0028812779 0.00031709093  0.000105437    97.241585   -9139.3819    8.1958334 
  923000       0.4615    299.58046 -0.0035923806 -0.0003483153 0.00018740798    96.770809   -9137.6926     12.51096 
  924000        0.462    298.12412 -0.0045337628 0.00010169238 0.00067309149    96.300382   -9137.3715     12.52993 
  925000       0.4625    296.74697 -0.0039713335 0.00012276417 0.0011146796    95.855534   -9136.8191    9.1129658 
  926000        0.463    304.12683 -0.0018345859 -0.00078807674 0.00035075754    98.239383   -9139.3397     7.573017 
  927000       0.4635    299.25843 -0.0011300107 -0.00073618418 0.00012224765    96.666787   -9138.9163    5.8131574 
  928000        0.464     296.4311 0.0029236775 -0.00053852713 0.0012441845    95.753501   -9138.8377   -12.097783 
  929000       0.4645    303.82548 0.0037574409 0.00014240857 0.00044785531     98.14204   -9139.0433   -14.492349 
  930000        0.465    297.79978 0.0037661032 0.00042194806 -0.00026409914    96.195614    -9138.433    -13.07984 
  931000       0.4655    297.48658 0.0081311921 -0.00019379826 0.00094694522    96.094443   -9137.6105   -29.614463 
  932000        0.466     303.2534 0.0053212812 -0.00025557925 0.0014065803    97.957247   -9140.4194   -21.574274 
  933000       0.4665     298.1255 0.0034043079 -0.0018805965   0.00122954    96.300829   -9139.6759   -9.1775046 
  934000        0.467    299.95697 -0.00038017883  -0.00144128 0.00037236455    96.892431   -9140.0293    4.8303141 
  935000       0.4675    299.58614 0.00095903946 -0.00053801767 -0.00022348084    96.772644   -9139.0937  -0.65846984 
  936000        0.468    296.50193 -0.0026593818 0.00033097162 -0.00041425099    95.776382   -9137.1981    9.1422038 
  937000       0.4685     299.6001 -0.006711942 -0.00095876167 0.00066119158    96.777156   -9138.9176     23.36504 
  938000        0.469    296.32715 -0.0068371488 0.00013064909 -0.00011758115    95.719924   -9137.6119    22.746936 
  939000       0.4695    301.72897 -0.0041468786 0.00080249367 -0.0016613351    97.464825   -9140.1136    16.685734 
  940000         0.47    298.14046 -0.0045321964 0.0010542145 -0.00080556715     96.30566   -9139.2678    14.278497 
  941000       0.4705    302.70064 -0.0043863279 0.00047814656 -0.00038507333    97.778693   -9140.6535    14.310849 
  942000        0.471    301.02756 -0.0022096543 -0.00030826989 0.00013714301    97.238256   -9140.4387    7.9359371 
  943000       0.4715    302.29286 0.0021055835 0.00077274268 5.7949066e-05    97.646972   -9139.7986   -9.7875841 
  944000        0.472     298.4027 0.0054804222 0.00054046924 -0.00013145901    96.390369    -9138.979   -19.631442 
  945000       0.4725    293.23719 0.0054280142 0.00078597548 -0.00026064621    94.721799    -9136.792   -19.844478 
  946000        0.473    295.96002 0.0046345036 0.00092806519 -9.3218542e-05    95.601333   -9137.9657   -18.231168 
  947000       0.4735    297.05309 0.0071901019 0.0015390355 -0.00080190081    95.954416   -9137.1204   -26.424122 
  948000        0.474    294.89671 0.0047402124 0.00091975679 -0.0001756693    95.257861   -9137.8615      -18.281 
  949000       0.4745    297.96995 0.0013206898 0.00030171801 7.9528822e-05    96.250581   -9138.4587   -5.6731221 
  950000        0.475    303.73511 -0.0013053558 0.00062117419 -0.00060344484    98.112848   -9138.7813    4.2920882 
  951000       0.4755    299.64459 -0.0026613541 0.0012678357 -0.00095892544    96.791526   -9138.4156    7.8414797 
  952000        0.476    305.74116 -0.0031486713 0.0010725226 -0.00099353507    98.760846   -9139.8258    10.232279 
  953000       0.4765     294.1404 -0.0041617748 0.00021215478 0.00042991456    95.013557   -9139.0927    11.732352 
  954000        0.477    297.63113 -0.006511708 -2.8910936e-05 9.6546902e-05    96.141137   -9138.2492     21.48024 
  955000       0.4775    301.19771 -0.0050518271 -0.00095735128 1.1097405e-05    97.293216   -9138.5213    19.993603 
  956000        0.478    303.74541 -0.001185989 -0.0008582749 -0.00023357233    98.116177   -9140.1839    7.5927873 
  957000       0.4785    301.48899 -0.00031332192 1.5204554e-05 0.00044763524    97.387305   -9140.3837  -0.49839293 
  958000        0.479    302.19648 -0.0019958411 0.0002759013 -0.00052691845    97.615841   -9140.5391    7.4895274 
  959000       0.4795    298.13866 0.0049520781 0.00027243837 -0.0015439039    96.305077   -9137.6684   -12.268709 
  960000         0.48    299.36009 0.0044674258 -7.4955371e-05 -0.0011098325    96.699627   -9139.3076   -10.942127 
  961000       0.4805     301.5755 0.0011782516 0.00070511541 -0.00050970106    97.415252   -9138.3619   -4.5788864 
  962000        0.481    299.24242 0.00093408846 0.00041679517 -0.00060185771    96.661617   -9137.6518   -2.4967531 
  963000       0.4815    299.19518 0.0037656589 0.00029190961 -0.0011877958    96.646356    -9139.463    -9.565909 
  964000        0.482    304.43944 0.0011725209 -0.00022845503 -0.00016810819    98.340364   -9138.4324   -2.5865254 
  965000       0.4825    297.95582 -0.0032581653 0.0009844964 0.00031332224    96.246017   -9138.6614    6.5344887 
  966000        0.483    302.87325 -0.0047986813 0.0011601314 3.181166e-05     97.83445   -9140.3454    12.022461 
  967000       0.4835     302.3717 -0.0033356526 0.0020719278 -0.00064979968    97.672441    -9139.842    6.3784151 
  968000        0.484    298.35356 -0.0022557616 0.00031754598 -0.0004401155    96.374497    -9138.162    7.9277705 
  969000       0.4845    299.87731 -0.005706091 -5.04355e-05 -0.00012464479      96.8667   -9138.9064    19.603904 
  970000        0.485    296.54201 -0.0043799407 0.0001921019 0.0001100997    95.789326   -9139.9519    13.592464 
  971000       0.4855     297.2602 0.0021107012 0.0005860227 -0.0011145999    96.021317    -9138.465   -5.2737466 
  972000        0.486    301.23109 0.0039332508 0.00011119077 -3.5397213e-05    97.303999   -9139.0718   -13.363481 
  973000       0.4865    296.99997 0.0040791939 0.00023095843 -0.00015186723    95.937257   -9138.3856    -13.86095 
  974000        0.487    296.40758 0.0016555244 0.0002504996 -0.00020629852    95.745903   -9136.9976   -5.6657516 
  975000       0.4875    297.07132 0.0040217726 -0.00026100224 -0.00027712126    95.960306   -9137.5339   -11.612164 
  976000        0.488    303.30137 0.0081227018 -9.9928389e-05 0.00027573943    97.972744   -9138.7584    -27.66171 
  977000       0.4885    298.49672 0.0025032623 -0.00022898246 0.00042267837    96.420738   -9138.2764   -8.9898608 
  978000        0.489    297.47019 0.00050852251 0.00018463357 0.00065502643    96.089148   -9138.8945   -4.4939417 
  979000       0.4895    303.03927 -0.0021768052 -0.00029315699 0.00057402934    97.888079   -9139.3991    6.3197762 
  980000         0.49     298.5562 -0.00076076637 -0.0016068755 0.0013835951    96.439954   -9139.1048    3.2801562 
  981000       0.4905    304.70961 -0.0039192457 -0.00027500897 0.00073768153    98.427633   -9139.4747    11.521911 
  982000        0.491    299.12573 -0.010240282 -0.00088614568 3.1766627e-05    96.623923   -9138.3329    36.982202 
  983000       0.4915    303.73684 -0.0078003394 -0.0011097504 -0.00014152769    98.113408   -9139.1453    30.172058 
  984000        0.492     300.9512 -0.0020236964 0.00033563891 -0.0016021292    97.213588   -9139.1197    10.967289 
  985000       0.4925     300.4356 0.0016103462 -0.00021560569 -0.0012031496    97.047037   -9139.3744  -0.63863628 
  986000        0.493    305.54381  -0.00534982 0.00059732357 -0.0013154723    98.697098   -9140.1986    20.226562 
  987000       0.4935     301.1862 -0.00042685407  0.001662997 2.1652473e-05    97.289498   -9138.1763   -4.1926515 
  988000        0.494    303.28921 0.0056945922 0.0012694113 -0.00032288639    97.968816   -9140.5213   -22.137057 
  989000       0.4945    296.36075 0.0050233236 0.00044853291 0.0004915546    95.730776   -9137.3585   -19.878037 
  990000        0.495    302.22549 0.0038513685 -0.00081011121 0.00024606477    97.625209   -9139.6727    -10.95774 
  991000       0.4955     299.8824 0.0030561337 -0.0010474904 0.00032207327    96.868343   -9139.6148   -7.7690555 
  992000        0.496    297.67181 0.0052972388 0.00023841872 -0.00055913853    96.154276   -9137.8541   -16.588397 
  993000       0.4965    296.48455 0.0027219711 0.00091242303 -0.00029860032    95.770768   -9138.3391   -11.119313 
  994000        0.497    309.28756 -0.0033356809 0.00036801904 -0.00061076066    99.906409   -9140.8123    11.928075 
  995000       0.4975    300.15408 -0.0036344085 0.00018038701 -0.00040726239      96.9561   -9138.9333    12.870946 
  996000        0.498    295.41303 -0.0041115438  0.000187138 -0.00044465429    95.424643   -9138.3251    14.563534 
  997000       0.4985    301.29856 -0.0031170495 -0.0001908768 3.4650881e-05    97.325792   -9138.4436    10.910918 
  998000        0.499    306.14219 -0.0036130429 -0.00055252096 0.00031416213    98.890386   -9140.7334    12.838006 
  999000       0.4995    305.50628 -0.0014594079 -8.1877414e-05 0.00043501441    98.684975   -9140.8651    3.6875698 
 1000000          0.5    300.46842 -0.00075041918 -0.00060330786 9.2535641e-05    97.057641   -9140.5281    4.2039713 
Loop time of 617.654 on 16 procs for 1000000 steps with 2500 atoms

Performance: 69.942 ns/day, 0.343 hours/ns, 1619.031 timesteps/s
89.3% CPU use with 16 MPI tasks x 1 OpenMP threads

MPI task timing breakdown:
Section |  min time  |  avg time  |  max time  |%varavg| %total
---------------------------------------------------------------
Pair    | 262.91     | 353.14     | 511.19     | 407.9 | 57.17
Neigh   | 0.10352    | 0.37041    | 0.86909    |  38.4 |  0.06
Comm    | 63.945     | 187.84     | 310.36     | 530.9 | 30.41
Output  | 1.0981     | 1.0989     | 1.1079     |   0.2 |  0.18
Modify  | 29.525     | 66.547     | 176.57     | 628.3 | 10.77
Other   |            | 8.665      |            |       |  1.40

Nlocal:    156.25 ave 683 max 0 min
Histogram: 7 4 1 1 0 1 1 0 0 1
Nghost:    334.188 ave 769 max 5 min
Histogram: 4 2 0 0 3 1 2 2 0 2
Neighs:    5746 ave 28460 max 0 min
Histogram: 9 2 2 0 1 0 0 1 0 1

Total # of neighbors = 91936
Ave neighs/atom = 36.7744
Neighbor list builds = 1194
Dangerous builds = 0
Total wall time: 0:10:24
