LAMMPS Structure File written by MatSQ2

2500 atoms

1 atom types

0 102 xlo xhi
0 40.4 ylo yhi
0 40.4 zlo zhi
0 0 0 xy xz yz

Masses

1 196.9665

Atoms

1 1 0 10 10
2 1 2.04 12.04 10
3 1 2.04 10 12.04
4 1 0 12.04 12.04
5 1 0 10 14.08
6 1 2.04 12.04 14.08
7 1 2.04 10 16.12
8 1 0 12.04 16.12
9 1 0 10 18.16
10 1 2.04 12.04 18.16
11 1 2.04 10 20.2
12 1 0 12.04 20.2
13 1 0 10 22.24
14 1 2.04 12.04 22.24
15 1 2.04 10 24.28
16 1 0 12.04 24.28
17 1 0 10 26.32
18 1 2.04 12.04 26.32
19 1 2.04 10 28.36
20 1 0 12.04 28.36
21 1 0 14.08 10
22 1 2.04 16.12 10
23 1 2.04 14.08 12.04
24 1 0 16.12 12.04
25 1 0 14.08 14.08
26 1 2.04 16.12 14.08
27 1 2.04 14.08 16.12
28 1 0 16.12 16.12
29 1 0 14.08 18.16
30 1 2.04 16.12 18.16
31 1 2.04 14.08 20.2
32 1 0 16.12 20.2
33 1 0 14.08 22.24
34 1 2.04 16.12 22.24
35 1 2.04 14.08 24.28
36 1 0 16.12 24.28
37 1 0 14.08 26.32
38 1 2.04 16.12 26.32
39 1 2.04 14.08 28.36
40 1 0 16.12 28.36
41 1 0 18.16 10
42 1 2.04 20.2 10
43 1 2.04 18.16 12.04
44 1 0 20.2 12.04
45 1 0 18.16 14.08
46 1 2.04 20.2 14.08
47 1 2.04 18.16 16.12
48 1 0 20.2 16.12
49 1 0 18.16 18.16
50 1 2.04 20.2 18.16
51 1 2.04 18.16 20.2
52 1 0 20.2 20.2
53 1 0 18.16 22.24
54 1 2.04 20.2 22.24
55 1 2.04 18.16 24.28
56 1 0 20.2 24.28
57 1 0 18.16 26.32
58 1 2.04 20.2 26.32
59 1 2.04 18.16 28.36
60 1 0 20.2 28.36
61 1 0 22.24 10
62 1 2.04 24.28 10
63 1 2.04 22.24 12.04
64 1 0 24.28 12.04
65 1 0 22.24 14.08
66 1 2.04 24.28 14.08
67 1 2.04 22.24 16.12
68 1 0 24.28 16.12
69 1 0 22.24 18.16
70 1 2.04 24.28 18.16
71 1 2.04 22.24 20.2
72 1 0 24.28 20.2
73 1 0 22.24 22.24
74 1 2.04 24.28 22.24
75 1 2.04 22.24 24.28
76 1 0 24.28 24.28
77 1 0 22.24 26.32
78 1 2.04 24.28 26.32
79 1 2.04 22.24 28.36
80 1 0 24.28 28.36
81 1 0 26.32 10
82 1 2.04 28.36 10
83 1 2.04 26.32 12.04
84 1 0 28.36 12.04
85 1 0 26.32 14.08
86 1 2.04 28.36 14.08
87 1 2.04 26.32 16.12
88 1 0 28.36 16.12
89 1 0 26.32 18.16
90 1 2.04 28.36 18.16
91 1 2.04 26.32 20.2
92 1 0 28.36 20.2
93 1 0 26.32 22.24
94 1 2.04 28.36 22.24
95 1 2.04 26.32 24.28
96 1 0 28.36 24.28
97 1 0 26.32 26.32
98 1 2.04 28.36 26.32
99 1 2.04 26.32 28.36
100 1 0 28.36 28.36
101 1 4.08 10 10
102 1 6.12 12.04 10
103 1 6.12 10 12.04
104 1 4.08 12.04 12.04
105 1 4.08 10 14.08
106 1 6.12 12.04 14.08
107 1 6.12 10 16.12
108 1 4.08 12.04 16.12
109 1 4.08 10 18.16
110 1 6.12 12.04 18.16
111 1 6.12 10 20.2
112 1 4.08 12.04 20.2
113 1 4.08 10 22.24
114 1 6.12 12.04 22.24
115 1 6.12 10 24.28
116 1 4.08 12.04 24.28
117 1 4.08 10 26.32
118 1 6.12 12.04 26.32
119 1 6.12 10 28.36
120 1 4.08 12.04 28.36
121 1 4.08 14.08 10
122 1 6.12 16.12 10
123 1 6.12 14.08 12.04
124 1 4.08 16.12 12.04
125 1 4.08 14.08 14.08
126 1 6.12 16.12 14.08
127 1 6.12 14.08 16.12
128 1 4.08 16.12 16.12
129 1 4.08 14.08 18.16
130 1 6.12 16.12 18.16
131 1 6.12 14.08 20.2
132 1 4.08 16.12 20.2
133 1 4.08 14.08 22.24
134 1 6.12 16.12 22.24
135 1 6.12 14.08 24.28
136 1 4.08 16.12 24.28
137 1 4.08 14.08 26.32
138 1 6.12 16.12 26.32
139 1 6.12 14.08 28.36
140 1 4.08 16.12 28.36
141 1 4.08 18.16 10
142 1 6.12 20.2 10
143 1 6.12 18.16 12.04
144 1 4.08 20.2 12.04
145 1 4.08 18.16 14.08
146 1 6.12 20.2 14.08
147 1 6.12 18.16 16.12
148 1 4.08 20.2 16.12
149 1 4.08 18.16 18.16
150 1 6.12 20.2 18.16
151 1 6.12 18.16 20.2
152 1 4.08 20.2 20.2
153 1 4.08 18.16 22.24
154 1 6.12 20.2 22.24
155 1 6.12 18.16 24.28
156 1 4.08 20.2 24.28
157 1 4.08 18.16 26.32
158 1 6.12 20.2 26.32
159 1 6.12 18.16 28.36
160 1 4.08 20.2 28.36
161 1 4.08 22.24 10
162 1 6.12 24.28 10
163 1 6.12 22.24 12.04
164 1 4.08 24.28 12.04
165 1 4.08 22.24 14.08
166 1 6.12 24.28 14.08
167 1 6.12 22.24 16.12
168 1 4.08 24.28 16.12
169 1 4.08 22.24 18.16
170 1 6.12 24.28 18.16
171 1 6.12 22.24 20.2
172 1 4.08 24.28 20.2
173 1 4.08 22.24 22.24
174 1 6.12 24.28 22.24
175 1 6.12 22.24 24.28
176 1 4.08 24.28 24.28
177 1 4.08 22.24 26.32
178 1 6.12 24.28 26.32
179 1 6.12 22.24 28.36
180 1 4.08 24.28 28.36
181 1 4.08 26.32 10
182 1 6.12 28.36 10
183 1 6.12 26.32 12.04
184 1 4.08 28.36 12.04
185 1 4.08 26.32 14.08
186 1 6.12 28.36 14.08
187 1 6.12 26.32 16.12
188 1 4.08 28.36 16.12
189 1 4.08 26.32 18.16
190 1 6.12 28.36 18.16
191 1 6.12 26.32 20.2
192 1 4.08 28.36 20.2
193 1 4.08 26.32 22.24
194 1 6.12 28.36 22.24
195 1 6.12 26.32 24.28
196 1 4.08 28.36 24.28
197 1 4.08 26.32 26.32
198 1 6.12 28.36 26.32
199 1 6.12 26.32 28.36
200 1 4.08 28.36 28.36
201 1 8.16 10 10
202 1 10.2 12.04 10
203 1 10.2 10 12.04
204 1 8.16 12.04 12.04
205 1 8.16 10 14.08
206 1 10.2 12.04 14.08
207 1 10.2 10 16.12
208 1 8.16 12.04 16.12
209 1 8.16 10 18.16
210 1 10.2 12.04 18.16
211 1 10.2 10 20.2
212 1 8.16 12.04 20.2
213 1 8.16 10 22.24
214 1 10.2 12.04 22.24
215 1 10.2 10 24.28
216 1 8.16 12.04 24.28
217 1 8.16 10 26.32
218 1 10.2 12.04 26.32
219 1 10.2 10 28.36
220 1 8.16 12.04 28.36
221 1 8.16 14.08 10
222 1 10.2 16.12 10
223 1 10.2 14.08 12.04
224 1 8.16 16.12 12.04
225 1 8.16 14.08 14.08
226 1 10.2 16.12 14.08
227 1 10.2 14.08 16.12
228 1 8.16 16.12 16.12
229 1 8.16 14.08 18.16
230 1 10.2 16.12 18.16
231 1 10.2 14.08 20.2
232 1 8.16 16.12 20.2
233 1 8.16 14.08 22.24
234 1 10.2 16.12 22.24
235 1 10.2 14.08 24.28
236 1 8.16 16.12 24.28
237 1 8.16 14.08 26.32
238 1 10.2 16.12 26.32
239 1 10.2 14.08 28.36
240 1 8.16 16.12 28.36
241 1 8.16 18.16 10
242 1 10.2 20.2 10
243 1 10.2 18.16 12.04
244 1 8.16 20.2 12.04
245 1 8.16 18.16 14.08
246 1 10.2 20.2 14.08
247 1 10.2 18.16 16.12
248 1 8.16 20.2 16.12
249 1 8.16 18.16 18.16
250 1 10.2 20.2 18.16
251 1 10.2 18.16 20.2
252 1 8.16 20.2 20.2
253 1 8.16 18.16 22.24
254 1 10.2 20.2 22.24
255 1 10.2 18.16 24.28
256 1 8.16 20.2 24.28
257 1 8.16 18.16 26.32
258 1 10.2 20.2 26.32
259 1 10.2 18.16 28.36
260 1 8.16 20.2 28.36
261 1 8.16 22.24 10
262 1 10.2 24.28 10
263 1 10.2 22.24 12.04
264 1 8.16 24.28 12.04
265 1 8.16 22.24 14.08
266 1 10.2 24.28 14.08
267 1 10.2 22.24 16.12
268 1 8.16 24.28 16.12
269 1 8.16 22.24 18.16
270 1 10.2 24.28 18.16
271 1 10.2 22.24 20.2
272 1 8.16 24.28 20.2
273 1 8.16 22.24 22.24
274 1 10.2 24.28 22.24
275 1 10.2 22.24 24.28
276 1 8.16 24.28 24.28
277 1 8.16 22.24 26.32
278 1 10.2 24.28 26.32
279 1 10.2 22.24 28.36
280 1 8.16 24.28 28.36
281 1 8.16 26.32 10
282 1 10.2 28.36 10
283 1 10.2 26.32 12.04
284 1 8.16 28.36 12.04
285 1 8.16 26.32 14.08
286 1 10.2 28.36 14.08
287 1 10.2 26.32 16.12
288 1 8.16 28.36 16.12
289 1 8.16 26.32 18.16
290 1 10.2 28.36 18.16
291 1 10.2 26.32 20.2
292 1 8.16 28.36 20.2
293 1 8.16 26.32 22.24
294 1 10.2 28.36 22.24
295 1 10.2 26.32 24.28
296 1 8.16 28.36 24.28
297 1 8.16 26.32 26.32
298 1 10.2 28.36 26.32
299 1 10.2 26.32 28.36
300 1 8.16 28.36 28.36
301 1 12.24 10 10
302 1 14.28 12.04 10
303 1 14.28 10 12.04
304 1 12.24 12.04 12.04
305 1 12.24 10 14.08
306 1 14.28 12.04 14.08
307 1 14.28 10 16.12
308 1 12.24 12.04 16.12
309 1 12.24 10 18.16
310 1 14.28 12.04 18.16
311 1 14.28 10 20.2
312 1 12.24 12.04 20.2
313 1 12.24 10 22.24
314 1 14.28 12.04 22.24
315 1 14.28 10 24.28
316 1 12.24 12.04 24.28
317 1 12.24 10 26.32
318 1 14.28 12.04 26.32
319 1 14.28 10 28.36
320 1 12.24 12.04 28.36
321 1 12.24 14.08 10
322 1 14.28 16.12 10
323 1 14.28 14.08 12.04
324 1 12.24 16.12 12.04
325 1 12.24 14.08 14.08
326 1 14.28 16.12 14.08
327 1 14.28 14.08 16.12
328 1 12.24 16.12 16.12
329 1 12.24 14.08 18.16
330 1 14.28 16.12 18.16
331 1 14.28 14.08 20.2
332 1 12.24 16.12 20.2
333 1 12.24 14.08 22.24
334 1 14.28 16.12 22.24
335 1 14.28 14.08 24.28
336 1 12.24 16.12 24.28
337 1 12.24 14.08 26.32
338 1 14.28 16.12 26.32
339 1 14.28 14.08 28.36
340 1 12.24 16.12 28.36
341 1 12.24 18.16 10
342 1 14.28 20.2 10
343 1 14.28 18.16 12.04
344 1 12.24 20.2 12.04
345 1 12.24 18.16 14.08
346 1 14.28 20.2 14.08
347 1 14.28 18.16 16.12
348 1 12.24 20.2 16.12
349 1 12.24 18.16 18.16
350 1 14.28 20.2 18.16
351 1 14.28 18.16 20.2
352 1 12.24 20.2 20.2
353 1 12.24 18.16 22.24
354 1 14.28 20.2 22.24
355 1 14.28 18.16 24.28
356 1 12.24 20.2 24.28
357 1 12.24 18.16 26.32
358 1 14.28 20.2 26.32
359 1 14.28 18.16 28.36
360 1 12.24 20.2 28.36
361 1 12.24 22.24 10
362 1 14.28 24.28 10
363 1 14.28 22.24 12.04
364 1 12.24 24.28 12.04
365 1 12.24 22.24 14.08
366 1 14.28 24.28 14.08
367 1 14.28 22.24 16.12
368 1 12.24 24.28 16.12
369 1 12.24 22.24 18.16
370 1 14.28 24.28 18.16
371 1 14.28 22.24 20.2
372 1 12.24 24.28 20.2
373 1 12.24 22.24 22.24
374 1 14.28 24.28 22.24
375 1 14.28 22.24 24.28
376 1 12.24 24.28 24.28
377 1 12.24 22.24 26.32
378 1 14.28 24.28 26.32
379 1 14.28 22.24 28.36
380 1 12.24 24.28 28.36
381 1 12.24 26.32 10
382 1 14.28 28.36 10
383 1 14.28 26.32 12.04
384 1 12.24 28.36 12.04
385 1 12.24 26.32 14.08
386 1 14.28 28.36 14.08
387 1 14.28 26.32 16.12
388 1 12.24 28.36 16.12
389 1 12.24 26.32 18.16
390 1 14.28 28.36 18.16
391 1 14.28 26.32 20.2
392 1 12.24 28.36 20.2
393 1 12.24 26.32 22.24
394 1 14.28 28.36 22.24
395 1 14.28 26.32 24.28
396 1 12.24 28.36 24.28
397 1 12.24 26.32 26.32
398 1 14.28 28.36 26.32
399 1 14.28 26.32 28.36
400 1 12.24 28.36 28.36
401 1 16.32 10 10
402 1 18.36 12.04 10
403 1 18.36 10 12.04
404 1 16.32 12.04 12.04
405 1 16.32 10 14.08
406 1 18.36 12.04 14.08
407 1 18.36 10 16.12
408 1 16.32 12.04 16.12
409 1 16.32 10 18.16
410 1 18.36 12.04 18.16
411 1 18.36 10 20.2
412 1 16.32 12.04 20.2
413 1 16.32 10 22.24
414 1 18.36 12.04 22.24
415 1 18.36 10 24.28
416 1 16.32 12.04 24.28
417 1 16.32 10 26.32
418 1 18.36 12.04 26.32
419 1 18.36 10 28.36
420 1 16.32 12.04 28.36
421 1 16.32 14.08 10
422 1 18.36 16.12 10
423 1 18.36 14.08 12.04
424 1 16.32 16.12 12.04
425 1 16.32 14.08 14.08
426 1 18.36 16.12 14.08
427 1 18.36 14.08 16.12
428 1 16.32 16.12 16.12
429 1 16.32 14.08 18.16
430 1 18.36 16.12 18.16
431 1 18.36 14.08 20.2
432 1 16.32 16.12 20.2
433 1 16.32 14.08 22.24
434 1 18.36 16.12 22.24
435 1 18.36 14.08 24.28
436 1 16.32 16.12 24.28
437 1 16.32 14.08 26.32
438 1 18.36 16.12 26.32
439 1 18.36 14.08 28.36
440 1 16.32 16.12 28.36
441 1 16.32 18.16 10
442 1 18.36 20.2 10
443 1 18.36 18.16 12.04
444 1 16.32 20.2 12.04
445 1 16.32 18.16 14.08
446 1 18.36 20.2 14.08
447 1 18.36 18.16 16.12
448 1 16.32 20.2 16.12
449 1 16.32 18.16 18.16
450 1 18.36 20.2 18.16
451 1 18.36 18.16 20.2
452 1 16.32 20.2 20.2
453 1 16.32 18.16 22.24
454 1 18.36 20.2 22.24
455 1 18.36 18.16 24.28
456 1 16.32 20.2 24.28
457 1 16.32 18.16 26.32
458 1 18.36 20.2 26.32
459 1 18.36 18.16 28.36
460 1 16.32 20.2 28.36
461 1 16.32 22.24 10
462 1 18.36 24.28 10
463 1 18.36 22.24 12.04
464 1 16.32 24.28 12.04
465 1 16.32 22.24 14.08
466 1 18.36 24.28 14.08
467 1 18.36 22.24 16.12
468 1 16.32 24.28 16.12
469 1 16.32 22.24 18.16
470 1 18.36 24.28 18.16
471 1 18.36 22.24 20.2
472 1 16.32 24.28 20.2
473 1 16.32 22.24 22.24
474 1 18.36 24.28 22.24
475 1 18.36 22.24 24.28
476 1 16.32 24.28 24.28
477 1 16.32 22.24 26.32
478 1 18.36 24.28 26.32
479 1 18.36 22.24 28.36
480 1 16.32 24.28 28.36
481 1 16.32 26.32 10
482 1 18.36 28.36 10
483 1 18.36 26.32 12.04
484 1 16.32 28.36 12.04
485 1 16.32 26.32 14.08
486 1 18.36 28.36 14.08
487 1 18.36 26.32 16.12
488 1 16.32 28.36 16.12
489 1 16.32 26.32 18.16
490 1 18.36 28.36 18.16
491 1 18.36 26.32 20.2
492 1 16.32 28.36 20.2
493 1 16.32 26.32 22.24
494 1 18.36 28.36 22.24
495 1 18.36 26.32 24.28
496 1 16.32 28.36 24.28
497 1 16.32 26.32 26.32
498 1 18.36 28.36 26.32
499 1 18.36 26.32 28.36
500 1 16.32 28.36 28.36
501 1 20.4 10 10
502 1 22.44 12.04 10
503 1 22.44 10 12.04
504 1 20.4 12.04 12.04
505 1 20.4 10 14.08
506 1 22.44 12.04 14.08
507 1 22.44 10 16.12
508 1 20.4 12.04 16.12
509 1 20.4 10 18.16
510 1 22.44 12.04 18.16
511 1 22.44 10 20.2
512 1 20.4 12.04 20.2
513 1 20.4 10 22.24
514 1 22.44 12.04 22.24
515 1 22.44 10 24.28
516 1 20.4 12.04 24.28
517 1 20.4 10 26.32
518 1 22.44 12.04 26.32
519 1 22.44 10 28.36
520 1 20.4 12.04 28.36
521 1 20.4 14.08 10
522 1 22.44 16.12 10
523 1 22.44 14.08 12.04
524 1 20.4 16.12 12.04
525 1 20.4 14.08 14.08
526 1 22.44 16.12 14.08
527 1 22.44 14.08 16.12
528 1 20.4 16.12 16.12
529 1 20.4 14.08 18.16
530 1 22.44 16.12 18.16
531 1 22.44 14.08 20.2
532 1 20.4 16.12 20.2
533 1 20.4 14.08 22.24
534 1 22.44 16.12 22.24
535 1 22.44 14.08 24.28
536 1 20.4 16.12 24.28
537 1 20.4 14.08 26.32
538 1 22.44 16.12 26.32
539 1 22.44 14.08 28.36
540 1 20.4 16.12 28.36
541 1 20.4 18.16 10
542 1 22.44 20.2 10
543 1 22.44 18.16 12.04
544 1 20.4 20.2 12.04
545 1 20.4 18.16 14.08
546 1 22.44 20.2 14.08
547 1 22.44 18.16 16.12
548 1 20.4 20.2 16.12
549 1 20.4 18.16 18.16
550 1 22.44 20.2 18.16
551 1 22.44 18.16 20.2
552 1 20.4 20.2 20.2
553 1 20.4 18.16 22.24
554 1 22.44 20.2 22.24
555 1 22.44 18.16 24.28
556 1 20.4 20.2 24.28
557 1 20.4 18.16 26.32
558 1 22.44 20.2 26.32
559 1 22.44 18.16 28.36
560 1 20.4 20.2 28.36
561 1 20.4 22.24 10
562 1 22.44 24.28 10
563 1 22.44 22.24 12.04
564 1 20.4 24.28 12.04
565 1 20.4 22.24 14.08
566 1 22.44 24.28 14.08
567 1 22.44 22.24 16.12
568 1 20.4 24.28 16.12
569 1 20.4 22.24 18.16
570 1 22.44 24.28 18.16
571 1 22.44 22.24 20.2
572 1 20.4 24.28 20.2
573 1 20.4 22.24 22.24
574 1 22.44 24.28 22.24
575 1 22.44 22.24 24.28
576 1 20.4 24.28 24.28
577 1 20.4 22.24 26.32
578 1 22.44 24.28 26.32
579 1 22.44 22.24 28.36
580 1 20.4 24.28 28.36
581 1 20.4 26.32 10
582 1 22.44 28.36 10
583 1 22.44 26.32 12.04
584 1 20.4 28.36 12.04
585 1 20.4 26.32 14.08
586 1 22.44 28.36 14.08
587 1 22.44 26.32 16.12
588 1 20.4 28.36 16.12
589 1 20.4 26.32 18.16
590 1 22.44 28.36 18.16
591 1 22.44 26.32 20.2
592 1 20.4 28.36 20.2
593 1 20.4 26.32 22.24
594 1 22.44 28.36 22.24
595 1 22.44 26.32 24.28
596 1 20.4 28.36 24.28
597 1 20.4 26.32 26.32
598 1 22.44 28.36 26.32
599 1 22.44 26.32 28.36
600 1 20.4 28.36 28.36
601 1 24.48 10 10
602 1 26.52 12.04 10
603 1 26.52 10 12.04
604 1 24.48 12.04 12.04
605 1 24.48 10 14.08
606 1 26.52 12.04 14.08
607 1 26.52 10 16.12
608 1 24.48 12.04 16.12
609 1 24.48 10 18.16
610 1 26.52 12.04 18.16
611 1 26.52 10 20.2
612 1 24.48 12.04 20.2
613 1 24.48 10 22.24
614 1 26.52 12.04 22.24
615 1 26.52 10 24.28
616 1 24.48 12.04 24.28
617 1 24.48 10 26.32
618 1 26.52 12.04 26.32
619 1 26.52 10 28.36
620 1 24.48 12.04 28.36
621 1 24.48 14.08 10
622 1 26.52 16.12 10
623 1 26.52 14.08 12.04
624 1 24.48 16.12 12.04
625 1 24.48 14.08 14.08
626 1 26.52 16.12 14.08
627 1 26.52 14.08 16.12
628 1 24.48 16.12 16.12
629 1 24.48 14.08 18.16
630 1 26.52 16.12 18.16
631 1 26.52 14.08 20.2
632 1 24.48 16.12 20.2
633 1 24.48 14.08 22.24
634 1 26.52 16.12 22.24
635 1 26.52 14.08 24.28
636 1 24.48 16.12 24.28
637 1 24.48 14.08 26.32
638 1 26.52 16.12 26.32
639 1 26.52 14.08 28.36
640 1 24.48 16.12 28.36
641 1 24.48 18.16 10
642 1 26.52 20.2 10
643 1 26.52 18.16 12.04
644 1 24.48 20.2 12.04
645 1 24.48 18.16 14.08
646 1 26.52 20.2 14.08
647 1 26.52 18.16 16.12
648 1 24.48 20.2 16.12
649 1 24.48 18.16 18.16
650 1 26.52 20.2 18.16
651 1 26.52 18.16 20.2
652 1 24.48 20.2 20.2
653 1 24.48 18.16 22.24
654 1 26.52 20.2 22.24
655 1 26.52 18.16 24.28
656 1 24.48 20.2 24.28
657 1 24.48 18.16 26.32
658 1 26.52 20.2 26.32
659 1 26.52 18.16 28.36
660 1 24.48 20.2 28.36
661 1 24.48 22.24 10
662 1 26.52 24.28 10
663 1 26.52 22.24 12.04
664 1 24.48 24.28 12.04
665 1 24.48 22.24 14.08
666 1 26.52 24.28 14.08
667 1 26.52 22.24 16.12
668 1 24.48 24.28 16.12
669 1 24.48 22.24 18.16
670 1 26.52 24.28 18.16
671 1 26.52 22.24 20.2
672 1 24.48 24.28 20.2
673 1 24.48 22.24 22.24
674 1 26.52 24.28 22.24
675 1 26.52 22.24 24.28
676 1 24.48 24.28 24.28
677 1 24.48 22.24 26.32
678 1 26.52 24.28 26.32
679 1 26.52 22.24 28.36
680 1 24.48 24.28 28.36
681 1 24.48 26.32 10
682 1 26.52 28.36 10
683 1 26.52 26.32 12.04
684 1 24.48 28.36 12.04
685 1 24.48 26.32 14.08
686 1 26.52 28.36 14.08
687 1 26.52 26.32 16.12
688 1 24.48 28.36 16.12
689 1 24.48 26.32 18.16
690 1 26.52 28.36 18.16
691 1 26.52 26.32 20.2
692 1 24.48 28.36 20.2
693 1 24.48 26.32 22.24
694 1 26.52 28.36 22.24
695 1 26.52 26.32 24.28
696 1 24.48 28.36 24.28
697 1 24.48 26.32 26.32
698 1 26.52 28.36 26.32
699 1 26.52 26.32 28.36
700 1 24.48 28.36 28.36
701 1 28.56 10 10
702 1 30.6 12.04 10
703 1 30.6 10 12.04
704 1 28.56 12.04 12.04
705 1 28.56 10 14.08
706 1 30.6 12.04 14.08
707 1 30.6 10 16.12
708 1 28.56 12.04 16.12
709 1 28.56 10 18.16
710 1 30.6 12.04 18.16
711 1 30.6 10 20.2
712 1 28.56 12.04 20.2
713 1 28.56 10 22.24
714 1 30.6 12.04 22.24
715 1 30.6 10 24.28
716 1 28.56 12.04 24.28
717 1 28.56 10 26.32
718 1 30.6 12.04 26.32
719 1 30.6 10 28.36
720 1 28.56 12.04 28.36
721 1 28.56 14.08 10
722 1 30.6 16.12 10
723 1 30.6 14.08 12.04
724 1 28.56 16.12 12.04
725 1 28.56 14.08 14.08
726 1 30.6 16.12 14.08
727 1 30.6 14.08 16.12
728 1 28.56 16.12 16.12
729 1 28.56 14.08 18.16
730 1 30.6 16.12 18.16
731 1 30.6 14.08 20.2
732 1 28.56 16.12 20.2
733 1 28.56 14.08 22.24
734 1 30.6 16.12 22.24
735 1 30.6 14.08 24.28
736 1 28.56 16.12 24.28
737 1 28.56 14.08 26.32
738 1 30.6 16.12 26.32
739 1 30.6 14.08 28.36
740 1 28.56 16.12 28.36
741 1 28.56 18.16 10
742 1 30.6 20.2 10
743 1 30.6 18.16 12.04
744 1 28.56 20.2 12.04
745 1 28.56 18.16 14.08
746 1 30.6 20.2 14.08
747 1 30.6 18.16 16.12
748 1 28.56 20.2 16.12
749 1 28.56 18.16 18.16
750 1 30.6 20.2 18.16
751 1 30.6 18.16 20.2
752 1 28.56 20.2 20.2
753 1 28.56 18.16 22.24
754 1 30.6 20.2 22.24
755 1 30.6 18.16 24.28
756 1 28.56 20.2 24.28
757 1 28.56 18.16 26.32
758 1 30.6 20.2 26.32
759 1 30.6 18.16 28.36
760 1 28.56 20.2 28.36
761 1 28.56 22.24 10
762 1 30.6 24.28 10
763 1 30.6 22.24 12.04
764 1 28.56 24.28 12.04
765 1 28.56 22.24 14.08
766 1 30.6 24.28 14.08
767 1 30.6 22.24 16.12
768 1 28.56 24.28 16.12
769 1 28.56 22.24 18.16
770 1 30.6 24.28 18.16
771 1 30.6 22.24 20.2
772 1 28.56 24.28 20.2
773 1 28.56 22.24 22.24
774 1 30.6 24.28 22.24
775 1 30.6 22.24 24.28
776 1 28.56 24.28 24.28
777 1 28.56 22.24 26.32
778 1 30.6 24.28 26.32
779 1 30.6 22.24 28.36
780 1 28.56 24.28 28.36
781 1 28.56 26.32 10
782 1 30.6 28.36 10
783 1 30.6 26.32 12.04
784 1 28.56 28.36 12.04
785 1 28.56 26.32 14.08
786 1 30.6 28.36 14.08
787 1 30.6 26.32 16.12
788 1 28.56 28.36 16.12
789 1 28.56 26.32 18.16
790 1 30.6 28.36 18.16
791 1 30.6 26.32 20.2
792 1 28.56 28.36 20.2
793 1 28.56 26.32 22.24
794 1 30.6 28.36 22.24
795 1 30.6 26.32 24.28
796 1 28.56 28.36 24.28
797 1 28.56 26.32 26.32
798 1 30.6 28.36 26.32
799 1 30.6 26.32 28.36
800 1 28.56 28.36 28.36
801 1 32.64 10 10
802 1 34.68 12.04 10
803 1 34.68 10 12.04
804 1 32.64 12.04 12.04
805 1 32.64 10 14.08
806 1 34.68 12.04 14.08
807 1 34.68 10 16.12
808 1 32.64 12.04 16.12
809 1 32.64 10 18.16
810 1 34.68 12.04 18.16
811 1 34.68 10 20.2
812 1 32.64 12.04 20.2
813 1 32.64 10 22.24
814 1 34.68 12.04 22.24
815 1 34.68 10 24.28
816 1 32.64 12.04 24.28
817 1 32.64 10 26.32
818 1 34.68 12.04 26.32
819 1 34.68 10 28.36
820 1 32.64 12.04 28.36
821 1 32.64 14.08 10
822 1 34.68 16.12 10
823 1 34.68 14.08 12.04
824 1 32.64 16.12 12.04
825 1 32.64 14.08 14.08
826 1 34.68 16.12 14.08
827 1 34.68 14.08 16.12
828 1 32.64 16.12 16.12
829 1 32.64 14.08 18.16
830 1 34.68 16.12 18.16
831 1 34.68 14.08 20.2
832 1 32.64 16.12 20.2
833 1 32.64 14.08 22.24
834 1 34.68 16.12 22.24
835 1 34.68 14.08 24.28
836 1 32.64 16.12 24.28
837 1 32.64 14.08 26.32
838 1 34.68 16.12 26.32
839 1 34.68 14.08 28.36
840 1 32.64 16.12 28.36
841 1 32.64 18.16 10
842 1 34.68 20.2 10
843 1 34.68 18.16 12.04
844 1 32.64 20.2 12.04
845 1 32.64 18.16 14.08
846 1 34.68 20.2 14.08
847 1 34.68 18.16 16.12
848 1 32.64 20.2 16.12
849 1 32.64 18.16 18.16
850 1 34.68 20.2 18.16
851 1 34.68 18.16 20.2
852 1 32.64 20.2 20.2
853 1 32.64 18.16 22.24
854 1 34.68 20.2 22.24
855 1 34.68 18.16 24.28
856 1 32.64 20.2 24.28
857 1 32.64 18.16 26.32
858 1 34.68 20.2 26.32
859 1 34.68 18.16 28.36
860 1 32.64 20.2 28.36
861 1 32.64 22.24 10
862 1 34.68 24.28 10
863 1 34.68 22.24 12.04
864 1 32.64 24.28 12.04
865 1 32.64 22.24 14.08
866 1 34.68 24.28 14.08
867 1 34.68 22.24 16.12
868 1 32.64 24.28 16.12
869 1 32.64 22.24 18.16
870 1 34.68 24.28 18.16
871 1 34.68 22.24 20.2
872 1 32.64 24.28 20.2
873 1 32.64 22.24 22.24
874 1 34.68 24.28 22.24
875 1 34.68 22.24 24.28
876 1 32.64 24.28 24.28
877 1 32.64 22.24 26.32
878 1 34.68 24.28 26.32
879 1 34.68 22.24 28.36
880 1 32.64 24.28 28.36
881 1 32.64 26.32 10
882 1 34.68 28.36 10
883 1 34.68 26.32 12.04
884 1 32.64 28.36 12.04
885 1 32.64 26.32 14.08
886 1 34.68 28.36 14.08
887 1 34.68 26.32 16.12
888 1 32.64 28.36 16.12
889 1 32.64 26.32 18.16
890 1 34.68 28.36 18.16
891 1 34.68 26.32 20.2
892 1 32.64 28.36 20.2
893 1 32.64 26.32 22.24
894 1 34.68 28.36 22.24
895 1 34.68 26.32 24.28
896 1 32.64 28.36 24.28
897 1 32.64 26.32 26.32
898 1 34.68 28.36 26.32
899 1 34.68 26.32 28.36
900 1 32.64 28.36 28.36
901 1 36.72 10 10
902 1 38.76 12.04 10
903 1 38.76 10 12.04
904 1 36.72 12.04 12.04
905 1 36.72 10 14.08
906 1 38.76 12.04 14.08
907 1 38.76 10 16.12
908 1 36.72 12.04 16.12
909 1 36.72 10 18.16
910 1 38.76 12.04 18.16
911 1 38.76 10 20.2
912 1 36.72 12.04 20.2
913 1 36.72 10 22.24
914 1 38.76 12.04 22.24
915 1 38.76 10 24.28
916 1 36.72 12.04 24.28
917 1 36.72 10 26.32
918 1 38.76 12.04 26.32
919 1 38.76 10 28.36
920 1 36.72 12.04 28.36
921 1 36.72 14.08 10
922 1 38.76 16.12 10
923 1 38.76 14.08 12.04
924 1 36.72 16.12 12.04
925 1 36.72 14.08 14.08
926 1 38.76 16.12 14.08
927 1 38.76 14.08 16.12
928 1 36.72 16.12 16.12
929 1 36.72 14.08 18.16
930 1 38.76 16.12 18.16
931 1 38.76 14.08 20.2
932 1 36.72 16.12 20.2
933 1 36.72 14.08 22.24
934 1 38.76 16.12 22.24
935 1 38.76 14.08 24.28
936 1 36.72 16.12 24.28
937 1 36.72 14.08 26.32
938 1 38.76 16.12 26.32
939 1 38.76 14.08 28.36
940 1 36.72 16.12 28.36
941 1 36.72 18.16 10
942 1 38.76 20.2 10
943 1 38.76 18.16 12.04
944 1 36.72 20.2 12.04
945 1 36.72 18.16 14.08
946 1 38.76 20.2 14.08
947 1 38.76 18.16 16.12
948 1 36.72 20.2 16.12
949 1 36.72 18.16 18.16
950 1 38.76 20.2 18.16
951 1 38.76 18.16 20.2
952 1 36.72 20.2 20.2
953 1 36.72 18.16 22.24
954 1 38.76 20.2 22.24
955 1 38.76 18.16 24.28
956 1 36.72 20.2 24.28
957 1 36.72 18.16 26.32
958 1 38.76 20.2 26.32
959 1 38.76 18.16 28.36
960 1 36.72 20.2 28.36
961 1 36.72 22.24 10
962 1 38.76 24.28 10
963 1 38.76 22.24 12.04
964 1 36.72 24.28 12.04
965 1 36.72 22.24 14.08
966 1 38.76 24.28 14.08
967 1 38.76 22.24 16.12
968 1 36.72 24.28 16.12
969 1 36.72 22.24 18.16
970 1 38.76 24.28 18.16
971 1 38.76 22.24 20.2
972 1 36.72 24.28 20.2
973 1 36.72 22.24 22.24
974 1 38.76 24.28 22.24
975 1 38.76 22.24 24.28
976 1 36.72 24.28 24.28
977 1 36.72 22.24 26.32
978 1 38.76 24.28 26.32
979 1 38.76 22.24 28.36
980 1 36.72 24.28 28.36
981 1 36.72 26.32 10
982 1 38.76 28.36 10
983 1 38.76 26.32 12.04
984 1 36.72 28.36 12.04
985 1 36.72 26.32 14.08
986 1 38.76 28.36 14.08
987 1 38.76 26.32 16.12
988 1 36.72 28.36 16.12
989 1 36.72 26.32 18.16
990 1 38.76 28.36 18.16
991 1 38.76 26.32 20.2
992 1 36.72 28.36 20.2
993 1 36.72 26.32 22.24
994 1 38.76 28.36 22.24
995 1 38.76 26.32 24.28
996 1 36.72 28.36 24.28
997 1 36.72 26.32 26.32
998 1 38.76 28.36 26.32
999 1 38.76 26.32 28.36
1000 1 36.72 28.36 28.36
1001 1 40.8 10 10
1002 1 42.84 12.04 10
1003 1 42.84 10 12.04
1004 1 40.8 12.04 12.04
1005 1 40.8 10 14.08
1006 1 42.84 12.04 14.08
1007 1 42.84 10 16.12
1008 1 40.8 12.04 16.12
1009 1 40.8 10 18.16
1010 1 42.84 12.04 18.16
1011 1 42.84 10 20.2
1012 1 40.8 12.04 20.2
1013 1 40.8 10 22.24
1014 1 42.84 12.04 22.24
1015 1 42.84 10 24.28
1016 1 40.8 12.04 24.28
1017 1 40.8 10 26.32
1018 1 42.84 12.04 26.32
1019 1 42.84 10 28.36
1020 1 40.8 12.04 28.36
1021 1 40.8 14.08 10
1022 1 42.84 16.12 10
1023 1 42.84 14.08 12.04
1024 1 40.8 16.12 12.04
1025 1 40.8 14.08 14.08
1026 1 42.84 16.12 14.08
1027 1 42.84 14.08 16.12
1028 1 40.8 16.12 16.12
1029 1 40.8 14.08 18.16
1030 1 42.84 16.12 18.16
1031 1 42.84 14.08 20.2
1032 1 40.8 16.12 20.2
1033 1 40.8 14.08 22.24
1034 1 42.84 16.12 22.24
1035 1 42.84 14.08 24.28
1036 1 40.8 16.12 24.28
1037 1 40.8 14.08 26.32
1038 1 42.84 16.12 26.32
1039 1 42.84 14.08 28.36
1040 1 40.8 16.12 28.36
1041 1 40.8 18.16 10
1042 1 42.84 20.2 10
1043 1 42.84 18.16 12.04
1044 1 40.8 20.2 12.04
1045 1 40.8 18.16 14.08
1046 1 42.84 20.2 14.08
1047 1 42.84 18.16 16.12
1048 1 40.8 20.2 16.12
1049 1 40.8 18.16 18.16
1050 1 42.84 20.2 18.16
1051 1 42.84 18.16 20.2
1052 1 40.8 20.2 20.2
1053 1 40.8 18.16 22.24
1054 1 42.84 20.2 22.24
1055 1 42.84 18.16 24.28
1056 1 40.8 20.2 24.28
1057 1 40.8 18.16 26.32
1058 1 42.84 20.2 26.32
1059 1 42.84 18.16 28.36
1060 1 40.8 20.2 28.36
1061 1 40.8 22.24 10
1062 1 42.84 24.28 10
1063 1 42.84 22.24 12.04
1064 1 40.8 24.28 12.04
1065 1 40.8 22.24 14.08
1066 1 42.84 24.28 14.08
1067 1 42.84 22.24 16.12
1068 1 40.8 24.28 16.12
1069 1 40.8 22.24 18.16
1070 1 42.84 24.28 18.16
1071 1 42.84 22.24 20.2
1072 1 40.8 24.28 20.2
1073 1 40.8 22.24 22.24
1074 1 42.84 24.28 22.24
1075 1 42.84 22.24 24.28
1076 1 40.8 24.28 24.28
1077 1 40.8 22.24 26.32
1078 1 42.84 24.28 26.32
1079 1 42.84 22.24 28.36
1080 1 40.8 24.28 28.36
1081 1 40.8 26.32 10
1082 1 42.84 28.36 10
1083 1 42.84 26.32 12.04
1084 1 40.8 28.36 12.04
1085 1 40.8 26.32 14.08
1086 1 42.84 28.36 14.08
1087 1 42.84 26.32 16.12
1088 1 40.8 28.36 16.12
1089 1 40.8 26.32 18.16
1090 1 42.84 28.36 18.16
1091 1 42.84 26.32 20.2
1092 1 40.8 28.36 20.2
1093 1 40.8 26.32 22.24
1094 1 42.84 28.36 22.24
1095 1 42.84 26.32 24.28
1096 1 40.8 28.36 24.28
1097 1 40.8 26.32 26.32
1098 1 42.84 28.36 26.32
1099 1 42.84 26.32 28.36
1100 1 40.8 28.36 28.36
1101 1 44.88 10 10
1102 1 46.92 12.04 10
1103 1 46.92 10 12.04
1104 1 44.88 12.04 12.04
1105 1 44.88 10 14.08
1106 1 46.92 12.04 14.08
1107 1 46.92 10 16.12
1108 1 44.88 12.04 16.12
1109 1 44.88 10 18.16
1110 1 46.92 12.04 18.16
1111 1 46.92 10 20.2
1112 1 44.88 12.04 20.2
1113 1 44.88 10 22.24
1114 1 46.92 12.04 22.24
1115 1 46.92 10 24.28
1116 1 44.88 12.04 24.28
1117 1 44.88 10 26.32
1118 1 46.92 12.04 26.32
1119 1 46.92 10 28.36
1120 1 44.88 12.04 28.36
1121 1 44.88 14.08 10
1122 1 46.92 16.12 10
1123 1 46.92 14.08 12.04
1124 1 44.88 16.12 12.04
1125 1 44.88 14.08 14.08
1126 1 46.92 16.12 14.08
1127 1 46.92 14.08 16.12
1128 1 44.88 16.12 16.12
1129 1 44.88 14.08 18.16
1130 1 46.92 16.12 18.16
1131 1 46.92 14.08 20.2
1132 1 44.88 16.12 20.2
1133 1 44.88 14.08 22.24
1134 1 46.92 16.12 22.24
1135 1 46.92 14.08 24.28
1136 1 44.88 16.12 24.28
1137 1 44.88 14.08 26.32
1138 1 46.92 16.12 26.32
1139 1 46.92 14.08 28.36
1140 1 44.88 16.12 28.36
1141 1 44.88 18.16 10
1142 1 46.92 20.2 10
1143 1 46.92 18.16 12.04
1144 1 44.88 20.2 12.04
1145 1 44.88 18.16 14.08
1146 1 46.92 20.2 14.08
1147 1 46.92 18.16 16.12
1148 1 44.88 20.2 16.12
1149 1 44.88 18.16 18.16
1150 1 46.92 20.2 18.16
1151 1 46.92 18.16 20.2
1152 1 44.88 20.2 20.2
1153 1 44.88 18.16 22.24
1154 1 46.92 20.2 22.24
1155 1 46.92 18.16 24.28
1156 1 44.88 20.2 24.28
1157 1 44.88 18.16 26.32
1158 1 46.92 20.2 26.32
1159 1 46.92 18.16 28.36
1160 1 44.88 20.2 28.36
1161 1 44.88 22.24 10
1162 1 46.92 24.28 10
1163 1 46.92 22.24 12.04
1164 1 44.88 24.28 12.04
1165 1 44.88 22.24 14.08
1166 1 46.92 24.28 14.08
1167 1 46.92 22.24 16.12
1168 1 44.88 24.28 16.12
1169 1 44.88 22.24 18.16
1170 1 46.92 24.28 18.16
1171 1 46.92 22.24 20.2
1172 1 44.88 24.28 20.2
1173 1 44.88 22.24 22.24
1174 1 46.92 24.28 22.24
1175 1 46.92 22.24 24.28
1176 1 44.88 24.28 24.28
1177 1 44.88 22.24 26.32
1178 1 46.92 24.28 26.32
1179 1 46.92 22.24 28.36
1180 1 44.88 24.28 28.36
1181 1 44.88 26.32 10
1182 1 46.92 28.36 10
1183 1 46.92 26.32 12.04
1184 1 44.88 28.36 12.04
1185 1 44.88 26.32 14.08
1186 1 46.92 28.36 14.08
1187 1 46.92 26.32 16.12
1188 1 44.88 28.36 16.12
1189 1 44.88 26.32 18.16
1190 1 46.92 28.36 18.16
1191 1 46.92 26.32 20.2
1192 1 44.88 28.36 20.2
1193 1 44.88 26.32 22.24
1194 1 46.92 28.36 22.24
1195 1 46.92 26.32 24.28
1196 1 44.88 28.36 24.28
1197 1 44.88 26.32 26.32
1198 1 46.92 28.36 26.32
1199 1 46.92 26.32 28.36
1200 1 44.88 28.36 28.36
1201 1 48.96 10 10
1202 1 51 12.04 10
1203 1 51 10 12.04
1204 1 48.96 12.04 12.04
1205 1 48.96 10 14.08
1206 1 51 12.04 14.08
1207 1 51 10 16.12
1208 1 48.96 12.04 16.12
1209 1 48.96 10 18.16
1210 1 51 12.04 18.16
1211 1 51 10 20.2
1212 1 48.96 12.04 20.2
1213 1 48.96 10 22.24
1214 1 51 12.04 22.24
1215 1 51 10 24.28
1216 1 48.96 12.04 24.28
1217 1 48.96 10 26.32
1218 1 51 12.04 26.32
1219 1 51 10 28.36
1220 1 48.96 12.04 28.36
1221 1 48.96 14.08 10
1222 1 51 16.12 10
1223 1 51 14.08 12.04
1224 1 48.96 16.12 12.04
1225 1 48.96 14.08 14.08
1226 1 51 16.12 14.08
1227 1 51 14.08 16.12
1228 1 48.96 16.12 16.12
1229 1 48.96 14.08 18.16
1230 1 51 16.12 18.16
1231 1 51 14.08 20.2
1232 1 48.96 16.12 20.2
1233 1 48.96 14.08 22.24
1234 1 51 16.12 22.24
1235 1 51 14.08 24.28
1236 1 48.96 16.12 24.28
1237 1 48.96 14.08 26.32
1238 1 51 16.12 26.32
1239 1 51 14.08 28.36
1240 1 48.96 16.12 28.36
1241 1 48.96 18.16 10
1242 1 51 20.2 10
1243 1 51 18.16 12.04
1244 1 48.96 20.2 12.04
1245 1 48.96 18.16 14.08
1246 1 51 20.2 14.08
1247 1 51 18.16 16.12
1248 1 48.96 20.2 16.12
1249 1 48.96 18.16 18.16
1250 1 51 20.2 18.16
1251 1 51 18.16 20.2
1252 1 48.96 20.2 20.2
1253 1 48.96 18.16 22.24
1254 1 51 20.2 22.24
1255 1 51 18.16 24.28
1256 1 48.96 20.2 24.28
1257 1 48.96 18.16 26.32
1258 1 51 20.2 26.32
1259 1 51 18.16 28.36
1260 1 48.96 20.2 28.36
1261 1 48.96 22.24 10
1262 1 51 24.28 10
1263 1 51 22.24 12.04
1264 1 48.96 24.28 12.04
1265 1 48.96 22.24 14.08
1266 1 51 24.28 14.08
1267 1 51 22.24 16.12
1268 1 48.96 24.28 16.12
1269 1 48.96 22.24 18.16
1270 1 51 24.28 18.16
1271 1 51 22.24 20.2
1272 1 48.96 24.28 20.2
1273 1 48.96 22.24 22.24
1274 1 51 24.28 22.24
1275 1 51 22.24 24.28
1276 1 48.96 24.28 24.28
1277 1 48.96 22.24 26.32
1278 1 51 24.28 26.32
1279 1 51 22.24 28.36
1280 1 48.96 24.28 28.36
1281 1 48.96 26.32 10
1282 1 51 28.36 10
1283 1 51 26.32 12.04
1284 1 48.96 28.36 12.04
1285 1 48.96 26.32 14.08
1286 1 51 28.36 14.08
1287 1 51 26.32 16.12
1288 1 48.96 28.36 16.12
1289 1 48.96 26.32 18.16
1290 1 51 28.36 18.16
1291 1 51 26.32 20.2
1292 1 48.96 28.36 20.2
1293 1 48.96 26.32 22.24
1294 1 51 28.36 22.24
1295 1 51 26.32 24.28
1296 1 48.96 28.36 24.28
1297 1 48.96 26.32 26.32
1298 1 51 28.36 26.32
1299 1 51 26.32 28.36
1300 1 48.96 28.36 28.36
1301 1 53.04 10 10
1302 1 55.08 12.04 10
1303 1 55.08 10 12.04
1304 1 53.04 12.04 12.04
1305 1 53.04 10 14.08
1306 1 55.08 12.04 14.08
1307 1 55.08 10 16.12
1308 1 53.04 12.04 16.12
1309 1 53.04 10 18.16
1310 1 55.08 12.04 18.16