LAMMPS (5 May 2020)
OMP_NUM_THREADS environment is not set. Defaulting to 1 thread. (../comm.cpp:94)
  using 1 OpenMP thread(s) per MPI task
# MatSQ - MD : Melt and quench
# Minimization --> Quenching Processs --> NEMD for thermal conductivity
#            rlx -->> nve1 -->> npt1(300-300)
#                     nve2 -->> npt2(300-2000)
#                     nve3
# Written by MK (Virtual Lab)
# 2020. 03. 23.
# Variables for Melt and quench
# Update log
# Add RDF and dump style has changed
# 2020. 06. 08.
# Modify dump style - schan
# 2020. 06. 08.
variable               N           equal     count(all)
variable               P           equal     1.01325
variable               T1          equal     1000     # quenching init temperature
variable               T2          equal     10    # quenching end temperature
variable               Qrate       equal     1      # K/ps
variable               Tdamp       equal     v_dt*100  # recommended value in official site
variable               Pdamp       equal     v_dt*1000 # recommended value in official site
variable               dt          equal     0.0005    # ps [1.e-12s] default 0.0005
variable               run_nve1    equal     50000
variable               run_npt1    equal     50000
variable               run_nve2    equal     50000
variable               run_npt2    equal     abs(floor((v_T2-v_T1)/v_Qrate/v_dt))
variable               run_nve3    equal     50000
variable               run_npt3    equal     abs(floor((v_T2-v_T1)/v_Qrate/v_dt))
variable               run_nve4    equal     50000
variable               rndn        equal     135753
variable               nbin        equal     200
# System
units                  metal
atom_style             atomic
dimension              3
boundary               p p p
# Read data from structure file / restart
read_data             structure.matsq.lammps
  triclinic box = (0 0 0) to (25.6 25.6 31.2) with tilt (0 0 0)
  1 by 2 by 2 MPI processor grid
  reading atoms ...
  13 atoms
  read_data CPU = 0.000761032 secs
#mass                  1 12.0107
# Define potential (FF)
pair_style      eam/alloy
pair_coeff      * * ffields/EAM-ALLOY/Au_Mpt.eam.alloy Au
# Relaxation
neighbor               2.0 bin
neigh_modify           every 10  delay 0 check yes
fix                    br all box/relax iso 0.0 vmax 0.001
min_style              cg
minimize               1.00e-30 1.00e-30 100000 1000000
WARNING: Using 'neigh_modify every 1 delay 0 check yes' setting during minimization (../min.cpp:190)
Neighbor list info ...
  update every 1 steps, delay 0 steps, check yes
  max neighbors/atom: 2000, page size: 100000
  master list distance cutoff = 7.5155
  ghost atom cutoff = 7.5155
  binsize = 3.75775, bins = 7 7 9
  1 neighbor lists, perpetual/occasional/extra = 1 0 0
  (1) pair eam/alloy, perpetual
      attributes: half, newton on
      pair build: half/bin/newton/tri
      stencil: half/bin/3d/newton/tri
      bin: standard
Per MPI rank memory allocation (min/avg/max) = 4.435 | 4.435 | 4.435 Mbytes
Step Temp E_pair E_mol TotEng Press Volume 
       0            0   -24.381766            0   -24.381766   -1624.5692    20447.232 
     647            0   -36.887111            0   -36.887111 -9.3205512e-06    8611.6735 
Loop time of 0.0235698 on 4 procs for 647 steps with 13 atoms

91.9% CPU use with 4 MPI tasks x 1 OpenMP threads

Minimization stats:
  Stopping criterion = energy tolerance
  Energy initial, next-to-last, final = 
        -24.3817659192     -36.8871109422     -36.8871109422
  Force two-norm initial, final = 62.5627 7.1785e-07
  Force max component initial, final = 62.199 2.98724e-07
  Final line search alpha, max atom move = 1 2.98724e-07
  Iterations, force evaluations = 647 846

MPI task timing breakdown:
Section |  min time  |  avg time  |  max time  |%varavg| %total
---------------------------------------------------------------
Pair    | 0.0072145  | 0.0078605  | 0.0086987  |   0.6 | 33.35
Neigh   | 2.5034e-05 | 3.1769e-05 | 3.5763e-05 |   0.0 |  0.13
Comm    | 0.0068662  | 0.0071267  | 0.0074699  |   0.3 | 30.24
Output  | 0          | 0          | 0          |   0.0 |  0.00
Modify  | 0          | 0          | 0          |   0.0 |  0.00
Other   |            | 0.008551   |            |       | 36.28

Nlocal:    3.25 ave 6 max 1 min
Histogram: 1 0 1 0 0 0 1 0 0 1
Nghost:    19.5 ave 27 max 12 min
Histogram: 1 0 0 1 0 0 1 0 0 1
Neighs:    19 ave 49 max 3 min
Histogram: 2 0 0 1 0 0 0 0 0 1

Total # of neighbors = 76
Ave neighs/atom = 5.84615
Neighbor list builds = 9
Dangerous builds = 0
unfix                  br
reset_timestep         0
# NVE 1
timestep               ${dt}
timestep               0.0005
thermo_style           custom step temp etotal pe ke enthalpy press lx ly lz vol density
thermo                 1000
fix                    nve1 all nve
variable               Temp   equal  temp
variable               ETOT   equal  etotal/v_N
variable               KE     equal  ke/v_N
variable               PE     equal  pe/v_N
variable               Pr     equal  press
#fix                    ave_nve1 all ave/time 100 10 1000 v_Temp v_ETOT v_PE v_KE v_Pr ave window 2 file temp_nve1.out
#write_data             data.polymer
run                    ${run_nve1}
run                    50000
Per MPI rank memory allocation (min/avg/max) = 3.31 | 3.311 | 3.311 Mbytes
Step Temp TotEng PotEng KinEng Enthalpy Press Lx Ly Lz Volume Density 
       0            0   -36.887111   -36.887111            0   -36.887111 -9.3205539e-06    19.189234    19.189234    23.386879    8611.6735   0.49374753 
    1000 3.3522504e-11   -36.887111   -36.887111 5.1997485e-14   -36.887111 7.4613756e-05    19.189234    19.189234    23.386879    8611.6735   0.49374753 
    2000 2.8920031e-11   -36.887111   -36.887111 4.4858488e-14   -36.887111 -9.1506929e-05    19.189234    19.189234    23.386879    8611.6735   0.49374753 
    3000 1.0782801e-11   -36.887111   -36.887111 1.6725438e-14   -36.887111 1.0186277e-06    19.189234    19.189234    23.386879    8611.6735   0.49374753 
    4000 4.0462768e-11   -36.887111   -36.887111 6.2762679e-14   -36.887111 -1.3716221e-05    19.189234    19.189234    23.386879    8611.6735   0.49374753 
    5000 1.7906718e-11   -36.887111   -36.887111  2.77755e-14   -36.887111 -2.4739076e-05    19.189234    19.189234    23.386879    8611.6735   0.49374753 
    6000 1.6756639e-11   -36.887111   -36.887111 2.5991587e-14    -36.88711 8.9272682e-05    19.189234    19.189234    23.386879    8611.6735   0.49374753 
    7000 4.2289456e-11   -36.887111   -36.887111 6.5596094e-14   -36.887111 -4.5511783e-05    19.189234    19.189234    23.386879    8611.6735   0.49374753 
    8000 1.1262924e-11   -36.887111   -36.887111 1.7470167e-14    -36.88711 9.6674113e-05    19.189234    19.189234    23.386879    8611.6735   0.49374753 
    9000 2.3458042e-11   -36.887111   -36.887111 3.6386279e-14   -36.887112 -0.00016859653    19.189234    19.189234    23.386879    8611.6735   0.49374753 
   10000 3.4419092e-11   -36.887111   -36.887111 5.3388202e-14    -36.88711 9.1278684e-05    19.189234    19.189234    23.386879    8611.6735   0.49374753 
   11000 1.0024155e-11   -36.887111   -36.887111 1.5548685e-14   -36.887111 -8.5119609e-05    19.189234    19.189234    23.386879    8611.6735   0.49374753 
   12000 3.3456455e-11   -36.887111   -36.887111 5.1895035e-14    -36.88711 0.00015803027    19.189234    19.189234    23.386879    8611.6735   0.49374753 
   13000 2.3458511e-11   -36.887111   -36.887111 3.6387006e-14   -36.887111 -8.74253e-05    19.189234    19.189234    23.386879    8611.6735   0.49374753 
   14000 1.1491118e-11   -36.887111   -36.887111 1.7824123e-14   -36.887111 5.5307979e-05    19.189234    19.189234    23.386879    8611.6735   0.49374753 
   15000 4.1922552e-11   -36.887111   -36.887111 6.5026982e-14   -36.887111 -3.2880965e-05    19.189234    19.189234    23.386879    8611.6735   0.49374753 
   16000 2.1442899e-11   -36.887111   -36.887111 3.3260547e-14   -36.887111 -4.6111453e-05    19.189234    19.189234    23.386879    8611.6735   0.49374753 
   17000 2.049983e-11   -36.887111   -36.887111 3.1797732e-14   -36.887111 2.8211294e-05    19.189234    19.189234    23.386879    8611.6735   0.49374753 
   18000 3.6447224e-11   -36.887111   -36.887111 5.6534082e-14   -36.887111 -9.2389153e-06    19.189234    19.189234    23.386879    8611.6735   0.49374753 
   19000 8.5819935e-12   -36.887111   -36.887111 1.3311717e-14    -36.88711 0.00013049585    19.189234    19.189234    23.386879    8611.6735   0.49374753 
   20000 2.9990137e-11   -36.887111   -36.887111 4.6518354e-14   -36.887112 -0.00014537378    19.189234    19.189234    23.386879    8611.6735   0.49374753 
   21000 3.3429441e-11   -36.887111   -36.887111 5.1853133e-14   -36.887111 8.2044177e-05    19.189234    19.189234    23.386879    8611.6735   0.49374753 
   22000 6.8858086e-12   -36.887111   -36.887111 1.0680727e-14   -36.887112 -0.00014296164    19.189234    19.189234    23.386879    8611.6735   0.49374753 
   23000 3.5614518e-11   -36.887111   -36.887111 5.5242452e-14    -36.88711 0.00012179297    19.189234    19.189234    23.386879    8611.6735   0.49374753 
   24000 2.4678876e-11   -36.887111   -36.887111 3.827994e-14   -36.887111 -6.4564879e-05    19.189234    19.189234    23.386879    8611.6735   0.49374753 
   25000 1.2553035e-11   -36.887111   -36.887111 1.9471285e-14    -36.88711 9.1996837e-05    19.189234    19.189234    23.386879    8611.6735   0.49374753 
   26000 4.1289349e-11   -36.887111   -36.887111 6.4044806e-14   -36.887111 -3.8458799e-05    19.189234    19.189234    23.386879    8611.6735   0.49374753 
   27000 1.3573998e-11   -36.887111   -36.887111 2.1054924e-14   -36.887111 -1.3356537e-05    19.189234    19.189234    23.386879    8611.6735   0.49374753 
   28000 1.9578039e-11   -36.887111   -36.887111 3.0367921e-14   -36.887111 -4.8479621e-05    19.189234    19.189234    23.386879    8611.6735   0.49374753 
   29000 4.2707894e-11   -36.887111   -36.887111 6.6245142e-14   -36.887111 -3.4998702e-05    19.189234    19.189234    23.386879    8611.6735   0.49374753 
   30000 7.9829698e-12   -36.887111   -36.887111 1.2382558e-14    -36.88711 0.00011309216    19.189234    19.189234    23.386879    8611.6735   0.49374753 
   31000 2.4296582e-11   -36.887111   -36.887111 3.7686956e-14   -36.887111 -5.0376709e-05    19.189234    19.189234    23.386879    8611.6735   0.49374753 
   32000 3.1844001e-11   -36.887111   -36.887111 4.9393922e-14   -36.887111 5.117482e-05    19.189234    19.189234    23.386879    8611.6735   0.49374753 
   33000 7.2974135e-12   -36.887111   -36.887111 1.1319177e-14   -36.887111 -6.2777945e-05    19.189234    19.189234    23.386879    8611.6735   0.49374753 
   34000 3.8306957e-11   -36.887111   -36.887111 5.9418754e-14   -36.887111 1.2153241e-05    19.189234    19.189234    23.386879    8611.6735   0.49374753 
   35000 2.6894503e-11   -36.887111   -36.887111 4.1716649e-14   -36.887111 -4.2195911e-05    19.189234    19.189234    23.386879    8611.6735   0.49374753 
   36000   9.0048e-12   -36.887111   -36.887111 1.3967541e-14   -36.887111 4.1510015e-05    19.189234    19.189234    23.386879    8611.6735   0.49374753 
   37000 3.8844311e-11   -36.887111   -36.887111 6.0252256e-14   -36.887111 8.0657762e-05    19.189234    19.189234    23.386879    8611.6735   0.49374753 
   38000 1.8226042e-11   -36.887111   -36.887111 2.8270809e-14   -36.887111 -7.3470933e-05    19.189234    19.189234    23.386879    8611.6735   0.49374753 
   39000 1.9591994e-11   -36.887111   -36.887111 3.0389568e-14   -36.887111 5.5474195e-05    19.189234    19.189234    23.386879    8611.6735   0.49374753 
   40000 3.6761326e-11   -36.887111   -36.887111 5.7021292e-14   -36.887112 -0.00014013956    19.189234    19.189234    23.386879    8611.6735   0.49374753 
   41000 9.893315e-12   -36.887111   -36.887111 1.5345736e-14    -36.88711 0.00013604192    19.189234    19.189234    23.386879    8611.6735   0.49374753 
   42000 2.8759921e-11   -36.887111   -36.887111 4.4610138e-14   -36.887111 -9.2236959e-05    19.189234    19.189234    23.386879    8611.6735   0.49374753 
   43000 3.2822167e-11   -36.887111   -36.887111 5.0911177e-14    -36.88711 0.00014178548    19.189234    19.189234    23.386879    8611.6735   0.49374753 
   44000 8.6627382e-12   -36.887111   -36.887111 1.3436962e-14   -36.887111 -8.6000351e-05    19.189234    19.189234    23.386879    8611.6735   0.49374753 
   45000 3.5624435e-11   -36.887111   -36.887111 5.5257835e-14   -36.887111 6.5978775e-05    19.189234    19.189234    23.386879    8611.6735   0.49374753 
   46000 2.3699509e-11   -36.887111   -36.887111 3.6760824e-14   -36.887112 -0.00011794883    19.189234    19.189234    23.386879    8611.6735   0.49374753 
   47000 1.7448339e-11   -36.887111   -36.887111 2.7064498e-14   -36.887111 -5.2911145e-06    19.189234    19.189234    23.386879    8611.6735   0.49374753 
   48000 4.2699895e-11   -36.887111   -36.887111 6.6232735e-14   -36.887111 7.0060733e-05    19.189234    19.189234    23.386879    8611.6735   0.49374753 
   49000 1.2208761e-11   -36.887111   -36.887111 1.8937274e-14   -36.887111 -1.9014435e-05    19.189234    19.189234    23.386879    8611.6735   0.49374753 
   50000 1.8708882e-11   -36.887111   -36.887111 2.9019753e-14   -36.887111 6.5732715e-05    19.189234    19.189234    23.386879    8611.6735   0.49374753 
Loop time of 1.04453 on 4 procs for 50000 steps with 13 atoms

Performance: 2067.922 ns/day, 0.012 hours/ns, 47868.565 timesteps/s
85.1% CPU use with 4 MPI tasks x 1 OpenMP threads

MPI task timing breakdown:
Section |  min time  |  avg time  |  max time  |%varavg| %total
---------------------------------------------------------------
Pair    | 0.41622    | 0.44657    | 0.48698    |   3.9 | 42.75
Neigh   | 0          | 0          | 0          |   0.0 |  0.00
Comm    | 0.43478    | 0.47972    | 0.51211    |   4.3 | 45.93
Output  | 0.0018437  | 0.0021753  | 0.0030541  |   1.1 |  0.21
Modify  | 0.042259   | 0.044812   | 0.050204   |   1.5 |  4.29
Other   |            | 0.07125    |            |       |  6.82

Nlocal:    3.25 ave 5 max 1 min
Histogram: 1 0 0 0 0 1 0 1 0 1
Nghost:    19.75 ave 27 max 13 min
Histogram: 1 0 1 0 0 0 1 0 0 1
Neighs:    19 ave 43 max 3 min
Histogram: 1 1 0 0 0 1 0 0 0 1

Total # of neighbors = 76
Ave neighs/atom = 5.84615
Neighbor list builds = 0
Dangerous builds = 0
unfix                  nve1
write_restart          restart.nve1
reset_timestep         0
# NPT 1
compute                myRDF all rdf ${nbin}   # compute [ID] [group-ID] rdf [Nbin] ...
compute                myRDF all rdf 200   
timestep               ${dt}
timestep               0.0005
thermo_style           custom step temp etotal pe ke enthalpy press vol lx ly lz density
velocity               all create ${T1} ${rndn} dist gaussian
velocity               all create 1000 ${rndn} dist gaussian
velocity               all create 1000 135753 dist gaussian
thermo                 1000
fix                    rdf    all ave/time 100 1 1000 c_myRDF[1] c_myRDF[2] file vlab/rdf.dat mode vector
#fix                    npt1 all npt temp ${T1} ${T1} ${Tdamp} iso ${P} ${P} ${Pdamp}
fix                    npt1 all nvt temp ${T1} ${T1} ${Tdamp}
fix                    npt1 all nvt temp 1000 ${T1} ${Tdamp}
fix                    npt1 all nvt temp 1000 1000 ${Tdamp}
fix                    npt1 all nvt temp 1000 1000 0.05
variable               Temp   equal  temp
variable               ETOT   equal  etotal/v_N
variable               KE     equal  ke/v_N
variable               PE     equal  pe/v_N
variable               Pr     equal  press
dump                   dmp_npt all custom 1000 vlab/movie.dat id element xs ys zs
dump_modify            dmp_npt element Au
fix                    ave_npt1 all ave/time 100 10 1000 v_Temp v_ETOT v_PE v_KE v_Pr ave window 2 file temp.out
run                    ${run_npt1}
run                    50000
Neighbor list info ...
  update every 10 steps, delay 0 steps, check yes
  max neighbors/atom: 2000, page size: 100000
  master list distance cutoff = 7.5155
  ghost atom cutoff = 7.5155
  binsize = 3.75775, bins = 6 6 7
  2 neighbor lists, perpetual/occasional/extra = 1 1 0
  (1) pair eam/alloy, perpetual
      attributes: half, newton on
      pair build: half/bin/newton/tri
      stencil: half/bin/3d/newton/tri
      bin: standard
  (2) compute rdf, occasional, copy from (1)
      attributes: half, newton on
      pair build: copy
      stencil: none
      bin: none
Per MPI rank memory allocation (min/avg/max) = 4.941 | 4.941 | 4.941 Mbytes
Step Temp TotEng PotEng KinEng Enthalpy Press Volume Lx Ly Lz Density 
       0         1000   -35.335989   -36.887111    1.5511217   -34.301908    192.38782    8611.6735    19.189234    19.189234    23.386879   0.49374753 
    1000    907.05722   -34.345753   -35.752709    1.4069562   -38.441101   -761.92756    8611.6735    19.189234    19.189234    23.386879   0.49374753 
    2000    792.24224   -34.248448   -35.477312    1.2288642   -32.980796    235.84287    8611.6735    19.189234    19.189234    23.386879   0.49374753 
    3000    904.68781   -33.959327   -35.362608    1.4032809   -35.802203   -342.86163    8611.6735    19.189234    19.189234    23.386879   0.49374753 
    4000    1432.1828   -33.429768   -35.651258    2.2214898   -37.105378   -683.83631    8611.6735    19.189234    19.189234    23.386879   0.49374753 
    5000    1014.5203   -34.084148   -35.657792    1.5736445   -39.179079   -947.89694    8611.6735    19.189234    19.189234    23.386879   0.49374753 
    6000    941.23054   -34.078853   -35.538816    1.4599631   -27.431508     1236.719    8611.6735    19.189234    19.189234    23.386879   0.49374753 
    7000    837.85177   -34.471243   -35.770853    1.2996101   -37.896426   -637.24515    8611.6735    19.189234    19.189234    23.386879   0.49374753 
    8000    818.25451   -34.450773   -35.719986    1.2692124    -38.98257   -843.12737    8611.6735    19.189234    19.189234    23.386879   0.49374753 
    9000    1019.5946   -33.624666   -35.206182    1.5815153    -21.27495    2297.6284    8611.6735    19.189234    19.189234    23.386879   0.49374753 
   10000    820.03589   -34.141592   -35.413567    1.2719755   -31.886381    419.57527    8611.6735    19.189234    19.189234    23.386879   0.49374753 
   11000    508.04974   -34.191387   -34.979434   0.78804699   -32.293139    353.16334    8611.6735    19.189234    19.189234    23.386879   0.49374753 
   12000     1006.427   -34.792797   -36.353888    1.5610907   -38.746926   -735.65409    8611.6735    19.189234    19.189234    23.386879   0.49374753 
   13000     1415.756   -32.773729   -34.969739    2.1960099   -33.388687   -114.41107    8611.6735    19.189234    19.189234    23.386879   0.49374753 
   14000    806.80702   -34.189274    -35.44073    1.2514559   -37.099114   -541.36714    8611.6735    19.189234    19.189234    23.386879   0.49374753 
   15000    1317.0888   -33.480046   -35.523011     2.042965   -28.190099      984.179    8611.6735    19.189234    19.189234    23.386879   0.49374753 
   16000    1293.4248   -32.763147   -34.769407    2.0062593   -34.527892   -328.32548    8611.6735    19.189234    19.189234    23.386879   0.49374753 
   17000    823.41735   -34.195554   -35.472774    1.2772205    -32.58626    299.40442    8611.6735    19.189234    19.189234    23.386879   0.49374753 
   18000    741.75778   -35.308223    -36.45878    1.1505566    -32.45453    530.92121    8611.6735    19.189234    19.189234    23.386879   0.49374753 
   19000    1184.2215   -32.878866   -34.715738    1.8368717   -23.293341    1783.3587    8611.6735    19.189234    19.189234    23.386879   0.49374753 
   20000    804.01268   -35.042386   -36.289507    1.2471215   -36.512864   -273.57808    8611.6735    19.189234    19.189234    23.386879   0.49374753 
   21000    905.60095   -34.143877   -35.548575    1.4046973   -36.160887   -375.25872    8611.6735    19.189234    19.189234    23.386879   0.49374753 
   22000    1293.0121   -34.045315   -36.050934    2.0056191   -33.912376    24.732844    8611.6735    19.189234    19.189234    23.386879   0.49374753 
   23000    1105.7368   -34.596362   -36.311494    1.7151324   -33.611984    183.14059    8611.6735    19.189234    19.189234    23.386879   0.49374753 
   24000    836.39375   -35.294682    -36.59203    1.2973485   -35.832501    -100.0597    8611.6735    19.189234    19.189234    23.386879   0.49374753 
   25000    1452.1783   -34.015134   -36.267639    2.2525053   -29.883594    768.66084    8611.6735    19.189234    19.189234    23.386879   0.49374753 
   26000    1144.1139   -34.240438   -36.015098      1.77466    -29.83077     820.4057    8611.6735    19.189234    19.189234    23.386879   0.49374753 
   27000    1303.1679   -33.249513   -35.270885    2.0213721   -34.119759   -161.90674    8611.6735    19.189234    19.189234    23.386879   0.49374753 
   28000    999.81581   -33.923307   -35.474143     1.550836   -37.250185   -618.95584    8611.6735    19.189234    19.189234    23.386879   0.49374753 
   29000    1098.1452   -33.833056   -35.536413    1.7033569   -41.641365   -1452.7128    8611.6735    19.189234    19.189234    23.386879   0.49374753 
   30000     664.3497    -34.34849   -35.378977    1.0304873   -37.304977   -550.04569    8611.6735    19.189234    19.189234    23.386879   0.49374753 
   31000    923.94977   -33.674615   -35.107773    1.4331586   -32.903811    143.40579    8611.6735    19.189234    19.189234    23.386879   0.49374753 
   32000    1210.0681   -33.989433   -35.866396     1.876963   -34.876194   -164.97922    8611.6735    19.189234    19.189234    23.386879   0.49374753 
   33000    568.61592   -35.177085   -36.059077   0.88199252   -32.453469    506.72073    8611.6735    19.189234    19.189234    23.386879   0.49374753 
   34000    1428.2085   -34.444227   -36.659552    2.2153252   -34.625917   -33.802855    8611.6735    19.189234    19.189234    23.386879   0.49374753 
   35000    1677.5618   -33.198432   -35.800534    2.6021025    -34.65071   -270.19203    8611.6735    19.189234    19.189234    23.386879   0.49374753 
   36000    994.58175   -35.025411   -36.568128    1.5427174   -33.811083    225.92216    8611.6735    19.189234    19.189234    23.386879   0.49374753 
   37000    1242.4603   -34.336465   -36.263672    1.9272073   -35.168136    -154.7299    8611.6735    19.189234    19.189234    23.386879   0.49374753 
   38000    998.14279   -35.047633   -36.595874     1.548241   -37.667072   -487.33896    8611.6735    19.189234    19.189234    23.386879   0.49374753 
   39000    846.18772   -35.190363   -36.502903    1.3125402   -34.362339    154.05125    8611.6735    19.189234    19.189234    23.386879   0.49374753 
   40000    1682.0685   -33.460268   -36.069361     2.609093    -40.08894    -1233.245    8611.6735    19.189234    19.189234    23.386879   0.49374753 
   41000    1090.1191    -34.69596   -36.386868    1.6909074   -29.301233    1003.6732    8611.6735    19.189234    19.189234    23.386879   0.49374753 
   42000    1148.8388   -34.408073   -36.190062    1.7819889   -33.435964      180.858    8611.6735    19.189234    19.189234    23.386879   0.49374753 
   43000    740.76355   -35.167027   -36.316041    1.1490145   -35.844883   -126.11309    8611.6735    19.189234    19.189234    23.386879   0.49374753 
   44000    1049.1525   -34.808686   -36.436049    1.6273633   -34.132558    125.79148    8611.6735    19.189234    19.189234    23.386879   0.49374753 
   45000     1373.905   -33.681919   -35.813013    2.1310939   -30.458417    599.72303    8611.6735    19.189234    19.189234    23.386879   0.49374753 
   46000    898.08536   -35.572296   -36.965335    1.3930397   -37.442449   -347.93645    8611.6735    19.189234    19.189234    23.386879   0.49374753 
   47000    628.21943   -35.169554   -36.143999   0.97444482   -35.641784    -87.85684    8611.6735    19.189234    19.189234    23.386879   0.49374753 
   48000    906.18819   -34.603523   -36.009131    1.4056082   -35.884558   -238.33279    8611.6735    19.189234    19.189234    23.386879   0.49374753 
   49000    1010.6892   -34.199039   -35.766741     1.567702   -31.843686    438.20653    8611.6735    19.189234    19.189234    23.386879   0.49374753 
   50000    1168.7231   -33.960043   -35.772875    1.8128319   -30.976077    555.15815    8611.6735    19.189234    19.189234    23.386879   0.49374753 
Loop time of 0.992259 on 4 procs for 50000 steps with 13 atoms

Performance: 2176.851 ns/day, 0.011 hours/ns, 50390.065 timesteps/s
85.1% CPU use with 4 MPI tasks x 1 OpenMP threads

MPI task timing breakdown:
Section |  min time  |  avg time  |  max time  |%varavg| %total
---------------------------------------------------------------
Pair    | 0.34687    | 0.37899    | 0.43441    |   5.4 | 38.19
Neigh   | 0.00024962 | 0.00033706 | 0.00042987 |   0.0 |  0.03
Comm    | 0.34377    | 0.37566    | 0.39673    |   3.4 | 37.86
Output  | 0.0040081  | 0.004154   | 0.0045447  |   0.4 |  0.42
Modify  | 0.13385    | 0.15808    | 0.19168    |   5.5 | 15.93
Other   |            | 0.07504    |            |       |  7.56

Nlocal:    3.25 ave 7 max 1 min
Histogram: 1 1 0 1 0 0 0 0 0 1
Nghost:    18.25 ave 24 max 11 min
Histogram: 1 0 0 1 0 0 0 0 1 1
Neighs:    19.5 ave 54 max 2 min
Histogram: 2 0 0 1 0 0 0 0 0 1

Total # of neighbors = 78
Ave neighs/atom = 6
Neighbor list builds = 70
Dangerous builds = 0
unfix                  npt1
write_restart          restart.npt1
# NVE 2
timestep               ${dt}
timestep               0.0005
thermo_style           custom step temp etotal pe ke enthalpy press lx ly lz vol  density
thermo                 1000
fix                    nve2 all nve
variable               Temp   equal  temp
variable               ETOT   equal  etotal/v_N
variable               KE     equal  ke/v_N
variable               PE     equal  pe/v_N
variable               Pr     equal  press
run                    ${run_nve2}
run                    50000
Per MPI rank memory allocation (min/avg/max) = 4.942 | 4.942 | 4.942 Mbytes
Step Temp TotEng PotEng KinEng Enthalpy Press Lx Ly Lz Volume Density 
   50000    1168.7231   -33.960043   -35.772875    1.8128319   -30.976077    555.15815    19.189234    19.189234    23.386879    8611.6735   0.49374753 
   51000    1241.4697   -33.960056   -35.885727    1.9256706   -35.282052   -245.95344    19.189234    19.189234    23.386879    8611.6735   0.49374753 
   52000    1289.0692   -33.960051   -35.959554    1.9995033   -38.258745   -799.75937    19.189234    19.189234    23.386879    8611.6735   0.49374753 
   53000    1392.9256    -33.96005   -36.120647    2.1605971   -39.908681   -1106.7253    19.189234    19.189234    23.386879    8611.6735   0.49374753 
   54000    1265.1861   -33.960055   -35.922512    1.9624577   -31.829958    396.29828    19.189234    19.189234    23.386879    8611.6735   0.49374753 
   55000    1121.0858   -33.960044   -35.698985    1.7389406   -30.722158    602.39927    19.189234    19.189234    23.386879    8611.6735   0.49374753 
   56000     940.0997   -33.960048   -35.418257    1.4582091   -32.006443    363.46241    19.189234    19.189234    23.386879    8611.6735   0.49374753 
   57000    1420.6958   -33.960055   -36.163727    2.2036722   -26.404932    1405.6083    19.189234    19.189234    23.386879    8611.6735   0.49374753 
   58000    1351.3748   -33.960049   -36.056195    2.0961468   -28.564816    1003.7672    19.189234    19.189234    23.386879    8611.6735   0.49374753 
   59000    1551.1368   -33.960065   -36.366067     2.406002   -29.708303    791.02777    19.189234    19.189234    23.386879    8611.6735   0.49374753 
   60000    1182.4878   -33.960053   -35.794235    1.8341826   -32.875589    201.76121    19.189234    19.189234    23.386879    8611.6735   0.49374753 
   61000     1127.964   -33.960043   -35.709652    1.7496094     -36.0499   -388.81183    19.189234    19.189234    23.386879    8611.6735   0.49374753 
   62000    885.15899   -33.960039   -35.333028    1.3729894   -35.821042   -346.23426    19.189234    19.189234    23.386879    8611.6735   0.49374753 
   63000    1055.9001   -33.960051   -35.597881    1.6378297   -38.212338   -791.12544    19.189234    19.189234    23.386879    8611.6735   0.49374753 
   64000    1010.3297   -33.960049   -35.527194    1.5671444   -35.979914   -375.78994    19.189234    19.189234    23.386879    8611.6735   0.49374753 
   65000    1200.2535   -33.960044   -35.821784    1.8617393   -35.279485   -245.47795    19.189234    19.189234    23.386879    8611.6735   0.49374753 
   66000    1165.7931   -33.960052   -35.768339    1.8082871   -38.501463   -844.91626    19.189234    19.189234    23.386879    8611.6735   0.49374753 
   67000    1289.4362   -33.960054   -35.960126    2.0000724   -33.515603    82.688624    19.189234    19.189234    23.386879    8611.6735   0.49374753 
   68000    1253.0103    -33.96005   -35.903621    1.9435716   -31.399083    476.46026    19.189234    19.189234    23.386879    8611.6735   0.49374753 
   69000    878.08151   -33.960043   -35.322055    1.3620113   -28.758438    967.74335    19.189234    19.189234    23.386879    8611.6735   0.49374753 
   70000     1205.574    -33.96005   -35.830042     1.869992   -31.606065    437.95197    19.189234    19.189234    23.386879    8611.6735   0.49374753 
   71000    1542.9169   -33.960068    -36.35332    2.3932519   -34.028327     -12.6994    19.189234    19.189234    23.386879    8611.6735   0.49374753 
   72000    890.46192   -33.960044   -35.341259    1.3812148    -28.13064    1084.5434    19.189234    19.189234    23.386879    8611.6735   0.49374753 
   73000    1557.0568   -33.960058   -36.375242    2.4151847   -33.592849    68.318016    19.189234    19.189234    23.386879    8611.6735   0.49374753 
   74000    1692.4549   -33.960052   -36.585255    2.6252036   -34.850172   -165.60427    19.189234    19.189234    23.386879    8611.6735   0.49374753 
   75000    1148.8545   -33.960068   -35.742081    1.7820132   -37.247581   -611.63214    19.189234    19.189234    23.386879    8611.6735   0.49374753 
   76000    1312.1196   -33.960044   -35.995301    2.0352572   -37.825414   -719.14064    19.189234    19.189234    23.386879    8611.6735   0.49374753 
   77000    1114.4254   -33.960037   -35.688646    1.7286094   -29.252624    875.80033    19.189234    19.189234    23.386879    8611.6735   0.49374753 
   78000    1053.3398    -33.96005   -35.593909    1.6338583   -30.731245    600.70971    19.189234    19.189234    23.386879    8611.6735   0.49374753 
   79000    1133.2189   -33.960051   -35.717812    1.7577604   -36.851447   -537.93571    19.189234    19.189234    23.386879    8611.6735   0.49374753 
   80000    1442.1247   -33.960058   -36.196969     2.236911   -33.027909    173.42368    19.189234    19.189234    23.386879    8611.6735   0.49374753 
   81000    1076.9904   -33.960046   -35.630589    1.6705432    -35.84324   -350.36285    19.189234    19.189234    23.386879    8611.6735   0.49374753 
   82000    1063.7659   -33.960046   -35.610076    1.6500304   -31.366188    482.57971    19.189234    19.189234    23.386879    8611.6735   0.49374753 
   83000    1013.5844   -33.960053   -35.532246    1.5721928   -35.352049   -258.97674    19.189234    19.189234    23.386879    8611.6735   0.49374753 
   84000    1378.1969   -33.960054   -36.097805    2.1377512   -31.137701     525.0905    19.189234    19.189234    23.386879    8611.6735   0.49374753 
   85000    1390.4009   -33.960062   -36.116743    2.1566811   -28.787201    962.39555    19.189234    19.189234    23.386879    8611.6735   0.49374753 
   86000    1258.2951   -33.960061    -35.91183    1.9517689   -34.194088   -43.539923    19.189234    19.189234    23.386879    8611.6735   0.49374753 
   87000    1327.7991   -33.960058   -36.019636     2.059578   -36.403039   -454.50943    19.189234    19.189234    23.386879    8611.6735   0.49374753 
   88000    1359.8146   -33.960052    -36.06929    2.1092379   -38.413659   -828.58041    19.189234    19.189234    23.386879    8611.6735   0.49374753 
   89000    1051.8944   -33.960046   -35.591662    1.6316163   -36.832567    -534.4242    19.189234    19.189234    23.386879    8611.6735   0.49374753 
   90000    1427.6813   -33.960069   -36.174577    2.2145075   -32.937229     190.2964    19.189234    19.189234    23.386879    8611.6735   0.49374753 
   91000     1195.812   -33.960054   -35.814904      1.85485   -36.055047   -389.76719    19.189234    19.189234    23.386879    8611.6735   0.49374753 
   92000    1348.7454   -33.960046   -36.052114    2.0920683   -33.817451    26.529317    19.189234    19.189234    23.386879    8611.6735   0.49374753 
   93000    1087.2854   -33.960044   -35.646556    1.6865119   -33.688503    50.519452    19.189234    19.189234    23.386879    8611.6735   0.49374753 
   94000    1031.6083    -33.96004   -35.560191    1.6001501   -33.807256    28.425067    19.189234    19.189234    23.386879    8611.6735   0.49374753 
   95000    1333.5356   -33.960058   -36.028534    2.0684761   -38.052431   -761.37395    19.189234    19.189234    23.386879    8611.6735   0.49374753 
   96000    1537.7745   -33.960056   -36.345331    2.3852755   -36.611103   -493.21956    19.189234    19.189234    23.386879    8611.6735   0.49374753 
   97000    1063.7465   -33.960049   -35.610049    1.6500003    -33.54624    76.987957    19.189234    19.189234    23.386879    8611.6735   0.49374753 
   98000    1042.4411   -33.960045   -35.576999    1.6169531   -37.380787   -636.41886    19.189234    19.189234    23.386879    8611.6735   0.49374753 
   99000    1036.5889   -33.960047   -35.567922    1.6078756   -35.202785   -231.20783    19.189234    19.189234    23.386879    8611.6735   0.49374753 
  100000    847.64546   -33.960038    -35.27484    1.3148013   -38.798866   -900.24975    19.189234    19.189234    23.386879    8611.6735   0.49374753 
Loop time of 0.749943 on 4 procs for 50000 steps with 13 atoms

Performance: 2880.218 ns/day, 0.008 hours/ns, 66671.711 timesteps/s
82.7% CPU use with 4 MPI tasks x 1 OpenMP threads

MPI task timing breakdown:
Section |  min time  |  avg time  |  max time  |%varavg| %total
---------------------------------------------------------------
Pair    | 0.27139    | 0.30414    | 0.36125    |   6.3 | 40.55
Neigh   | 0.00027442 | 0.00038642 | 0.00051475 |   0.0 |  0.05
Comm    | 0.25434    | 0.31486    | 0.35165    |   6.6 | 41.98
Output  | 0.0037024  | 0.003832   | 0.0042081  |   0.4 |  0.51
Modify  | 0.059929   | 0.063188   | 0.066215   |   0.9 |  8.43
Other   |            | 0.06354    |            |       |  8.47

Nlocal:    3.25 ave 7 max 0 min
Histogram: 1 0 0 0 2 0 0 0 0 1
Nghost:    16.25 ave 22 max 10 min
Histogram: 1 0 0 1 0 0 0 1 0 1
Neighs:    19.5 ave 49 max 0 min
Histogram: 2 0 0 0 0 1 0 0 0 1

Total # of neighbors = 78
Ave neighs/atom = 6
Neighbor list builds = 97
Dangerous builds = 0
unfix                  nve2
write_restart          restart.nve2
# NPT 2
timestep               ${dt}
timestep               0.0005
thermo_style           custom step temp etotal pe ke enthalpy press vol lx ly lz density
thermo                 1000
#fix                    npt2 all npt temp ${T1} ${T2} ${Tdamp} iso ${P} ${P} ${Pdamp}
fix                    npt2 all nvt temp ${T1} ${T2} ${Tdamp}
fix                    npt2 all nvt temp 1000 ${T2} ${Tdamp}
fix                    npt2 all nvt temp 1000 10 ${Tdamp}
fix                    npt2 all nvt temp 1000 10 0.05
variable               Temp   equal  temp
variable               ETOT   equal  etotal/v_N
variable               KE     equal  ke/v_N
variable               PE     equal  pe/v_N
variable               Pr     equal  press
run                    ${run_npt2}
run                    1980000
Per MPI rank memory allocation (min/avg/max) = 4.942 | 4.942 | 4.942 Mbytes
Step Temp TotEng PotEng KinEng Enthalpy Press Volume Lx Ly Lz Density 
  100000    847.64546   -33.960038    -35.27484    1.3148013   -38.798866   -900.24975    8611.6735    19.189234    19.189234    23.386879   0.49374753 
  101000    858.44249   -33.490178   -34.821727    1.3315488    -28.54046    920.88039    8611.6735    19.189234    19.189234    23.386879   0.49374753 
  102000    648.99065   -34.591644   -35.598307    1.0066635   -34.995528   -75.141403    8611.6735    19.189234    19.189234    23.386879   0.49374753 
  103000    693.23458   -34.341875   -35.417166    1.0752912   -33.359746    182.72209    8611.6735    19.189234    19.189234    23.386879   0.49374753 
  104000    607.57052   -35.006911   -35.949327   0.94241584   -31.794936    597.57857    8611.6735    19.189234    19.189234    23.386879   0.49374753 
  105000     1068.621   -33.739249    -35.39681    1.6575613      -39.718    -1112.329    8611.6735    19.189234    19.189234    23.386879   0.49374753 
  106000    1393.6671   -34.339019   -36.500767    2.1617473   -35.371679   -192.12323    8611.6735    19.189234    19.189234    23.386879   0.49374753 
  107000    1413.8954    -34.19377   -36.386894    2.1931239   -28.789342     1005.478    8611.6735    19.189234    19.189234    23.386879   0.49374753 
  108000    815.31976   -35.370726   -36.635386    1.2646602    -34.17134    223.14225    8611.6735    19.189234    19.189234    23.386879   0.49374753 
  109000    994.66192   -34.536104   -36.078946    1.5428417   -35.702318   -216.97073    8611.6735    19.189234    19.189234    23.386879   0.49374753 
  110000    1230.6893   -34.949329   -36.858278     1.908949   -33.404373    287.43453    8611.6735    19.189234    19.189234    23.386879   0.49374753 
  111000    521.52446   -35.448778   -36.257726   0.80894794   -36.450288   -186.32792    8611.6735    19.189234    19.189234    23.386879   0.49374753 
  112000    1510.7606   -33.291534   -35.634907    2.3433736   -34.234223   -175.38465    8611.6735    19.189234    19.189234    23.386879   0.49374753 
  113000    1024.7315   -34.146625   -35.736109    1.5894834    -33.01863    209.86023    8611.6735    19.189234    19.189234    23.386879   0.49374753 
  114000     705.2452   -35.549176   -36.643097    1.0939212   -36.670488   -208.61692    8611.6735    19.189234    19.189234    23.386879   0.49374753 
  115000    1423.2252   -34.029943   -36.237539    2.2075956   -34.637783   -113.08675    8611.6735    19.189234    19.189234    23.386879   0.49374753 
  116000    1052.6034   -36.241328   -37.874044     1.632716   -31.358111     908.5081    8611.6735    19.189234    19.189234    23.386879   0.49374753 
  117000    1083.1545   -35.244757   -36.924861    1.6801045   -36.775764    -284.8394    8611.6735    19.189234    19.189234    23.386879   0.49374753 
  118000    1079.1783   -35.701393    -37.37533    1.6739369   -38.039025   -434.90945    8611.6735    19.189234    19.189234    23.386879   0.49374753 
  119000    529.73206   -35.595987   -36.417666   0.82167891   -37.380161   -331.94031    8611.6735    19.189234    19.189234    23.386879   0.49374753 
  120000    914.39685   -35.350026   -36.768367    1.4183408   -32.308466    565.87335    8611.6735    19.189234    19.189234    23.386879   0.49374753 
  121000    1263.6118   -35.248708   -37.208724    1.9600157    -34.05754    221.61323    8611.6735    19.189234    19.189234    23.386879   0.49374753 
  122000     1128.118   -35.607942    -37.35779    1.7498484    -39.80494   -780.83918    8611.6735    19.189234    19.189234    23.386879   0.49374753 
  123000     979.5189   -35.597344   -37.116697    1.5193531   -43.740722   -1515.0515    8611.6735    19.189234    19.189234    23.386879   0.49374753 
  124000    1035.8866   -34.299632   -35.906418    1.6067863   -31.124747    590.67807    8611.6735    19.189234    19.189234    23.386879   0.49374753 
  125000    1231.2381   -35.661885   -37.571685    1.9098002   -34.187736    274.26108    8611.6735    19.189234    19.189234    23.386879   0.49374753 
  126000     961.2828   -35.766403   -37.257469    1.4910667   -36.155299   -72.352977    8611.6735    19.189234    19.189234    23.386879   0.49374753 
  127000    467.52356   -36.323816   -37.049002   0.72518596   -37.943346   -301.30895    8611.6735    19.189234    19.189234    23.386879   0.49374753 
  128000    524.34641   -36.458913   -37.272238   0.81332511    -34.39399    384.17288    8611.6735    19.189234    19.189234    23.386879   0.49374753 
  129000     1696.457   -34.638402   -37.269814    2.6314114   -33.931433    131.52964    8611.6735    19.189234    19.189234    23.386879   0.49374753 
  130000    1308.6225   -35.408346   -37.438178    2.0298327   -36.737159   -247.22179    8611.6735    19.189234    19.189234    23.386879   0.49374753 
  131000    797.64546   -35.762692   -36.999937    1.2372452    -35.65774    19.525911    8611.6735    19.189234    19.189234    23.386879   0.49374753 
  132000    810.41046   -35.481513   -36.738558    1.2570453   -33.427992     382.0515    8611.6735    19.189234    19.189234    23.386879   0.49374753 
  133000    1223.6715    -35.37327   -37.271334    1.8980634   -32.903335    459.52412    8611.6735    19.189234    19.189234    23.386879   0.49374753 
  134000     812.0381   -35.984214   -37.243783      1.25957   -38.670374   -499.75221    8611.6735    19.189234    19.189234    23.386879   0.49374753 
  135000    1257.5031   -35.005978   -36.956518    1.9505404   -35.561601   -103.37198    8611.6735    19.189234    19.189234    23.386879   0.49374753 
  136000     777.4053   -35.197019    -36.40287    1.2058503   -39.877936   -870.87072    8611.6735    19.189234    19.189234    23.386879   0.49374753 
  137000    1174.1526   -35.591629   -37.412882    1.8212536   -40.206202   -858.52785    8611.6735    19.189234    19.189234    23.386879   0.49374753 
  138000    1359.7999   -34.704668   -36.813883    2.1092152   -32.577441    395.76425    8611.6735    19.189234    19.189234    23.386879   0.49374753 
  139000    805.51247   -35.877969   -37.127417    1.2494479   -33.927557    362.86842    8611.6735    19.189234    19.189234    23.386879   0.49374753 
  140000    1000.5299   -35.630142   -37.182086    1.5519436   -39.077379   -641.34828    8611.6735    19.189234    19.189234    23.386879   0.49374753 
  141000    721.28853   -35.883384   -37.002191    1.1188063   -34.121353    327.82075    8611.6735    19.189234    19.189234    23.386879   0.49374753 
  142000     1002.075   -35.547728   -37.102068    1.5543403   -33.449811    390.31136    8611.6735    19.189234    19.189234    23.386879   0.49374753 
  143000    959.60733   -35.352912   -36.841379    1.4884678   -37.493969   -398.33743    8611.6735    19.189234    19.189234    23.386879   0.49374753 
  144000    1056.7457   -34.542548   -36.181689    1.6391413    -33.44218    204.72018    8611.6735    19.189234    19.189234    23.386879   0.49374753 
  145000     969.8036   -36.433741   -37.938024    1.5042835   -30.400304    1122.5032    8611.6735    19.189234    19.189234    23.386879   0.49374753 
  146000    1114.1852   -34.988455   -36.716692    1.7282369   -36.069283   -201.08483    8611.6735    19.189234    19.189234    23.386879   0.49374753 
  147000    905.82234   -35.781334   -37.186375    1.4050407   -38.214698   -452.72015    8611.6735    19.189234    19.189234    23.386879   0.49374753 
  148000    885.86424    -35.72911   -37.103194    1.3740833   -32.871961    531.56426    8611.6735    19.189234    19.189234    23.386879   0.49374753 
  149000    866.17081   -35.364961   -36.708498    1.3435364   -34.639448    134.97961    8611.6735    19.189234    19.189234    23.386879   0.49374753 
  150000    888.93166    -35.30657   -36.685411    1.3788412   -32.754258     474.8501    8611.6735    19.189234    19.189234    23.386879   0.49374753 
  151000    1097.1679   -35.368322   -37.070163     1.701841   -32.169284    595.17157    8611.6735    19.189234    19.189234    23.386879   0.49374753 
  152000    773.69217   -35.450533   -36.650624    1.2000907   -37.892052   -454.23743    8611.6735    19.189234    19.189234    23.386879   0.49374753 
  153000    1114.9505   -35.765217   -37.494641    1.7294239   -38.814112   -567.23789    8611.6735    19.189234    19.189234    23.386879   0.49374753 
  154000    916.58244   -35.851033   -37.272764    1.4217309   -34.453868    259.93847    8611.6735    19.189234    19.189234    23.386879   0.49374753 
  155000    1108.8222   -34.723227   -36.443145    1.7199183   -32.460601    420.95494    8611.6735    19.189234    19.189234    23.386879   0.49374753 
  156000    642.10517   -36.793339   -37.789322   0.99598328   -36.015684    144.68046    8611.6735    19.189234    19.189234    23.386879   0.49374753 
  157000    949.08907   -34.734197   -36.206349    1.4721527   -33.220134    281.68688    8611.6735    19.189234    19.189234    23.386879   0.49374753 
  158000    1062.5659   -35.253044   -36.901213     1.648169   -38.125806   -534.46887    8611.6735    19.189234    19.189234    23.386879   0.49374753 
  159000    1015.9702   -35.057897    -36.63379    1.5758935   -35.859169   -149.07441    8611.6735    19.189234    19.189234    23.386879   0.49374753 
  160000    837.90446   -35.550649   -36.850341    1.2996918   -32.425382    581.44679    8611.6735    19.189234    19.189234    23.386879   0.49374753 
  161000    1064.9298   -34.821559   -36.473395    1.6518357   -36.202415   -256.90417    8611.6735    19.189234    19.189234    23.386879   0.49374753 
  162000    1479.3188    -34.05147   -36.346073    2.2946036   -35.540449   -277.02018    8611.6735    19.189234    19.189234    23.386879   0.49374753 
  163000    884.41303    -35.59467   -36.966502    1.3718323   -32.960014    490.16986    8611.6735    19.189234    19.189234    23.386879   0.49374753 
  164000    1243.0207   -34.937595   -36.865672    1.9280764   -40.341044   -1005.2958    8611.6735    19.189234    19.189234    23.386879   0.49374753 
  165000    1303.5002   -34.479641   -36.501529    2.0218875   -35.597716   -208.01453    8611.6735    19.189234    19.189234    23.386879   0.49374753 
  166000    1117.8452    -35.41506   -37.148974     1.733914   -36.285379   -161.92033    8611.6735    19.189234    19.189234    23.386879   0.49374753 
  167000    843.48109    -35.86867   -37.177012    1.3083419   -37.286269    -263.7401    8611.6735    19.189234    19.189234    23.386879   0.49374753 
  168000     1076.337   -35.432738   -37.102268    1.6695297   -35.601085   -31.320415    8611.6735    19.189234    19.189234    23.386879   0.49374753 
  169000    813.19468   -36.031245   -37.292609    1.2613639   -34.431715    297.58781    8611.6735    19.189234    19.189234    23.386879   0.49374753 
  170000    628.18318    -36.21463   -37.189018   0.97438859   -36.078041    25.411886    8611.6735    19.189234    19.189234    23.386879   0.49374753 
  171000    879.23947   -35.980355   -37.344162    1.3638075   -39.008174   -563.31684    8611.6735    19.189234    19.189234    23.386879   0.49374753 
  172000    880.78145   -35.928688   -37.294887    1.3661993   -37.235167   -243.06662    8611.6735    19.189234    19.189234    23.386879   0.49374753 
  173000    1024.9421   -35.928123   -37.517933      1.58981   -32.719998    596.86218    8611.6735    19.189234    19.189234    23.386879   0.49374753 
  174000    1529.0533   -35.177714   -37.549462    2.3717478   -33.775612    260.85686    8611.6735    19.189234    19.189234    23.386879   0.49374753 
  175000     861.0077   -35.902585   -37.238113    1.3355278   -38.992444   -574.85908    8611.6735    19.189234    19.189234    23.386879   0.49374753 
  176000    906.37893   -35.951066    -37.35697    1.4059041   -41.468966   -1026.5891    8611.6735    19.189234    19.189234    23.386879   0.49374753 
  177000    964.19764   -36.354924   -37.850512    1.4955879   -31.616521    881.56596    8611.6735    19.189234    19.189234    23.386879   0.49374753 
  178000    802.65644   -35.860562    -37.10558    1.2450179   -32.175445    685.60519    8611.6735    19.189234    19.189234    23.386879   0.49374753 
  179000    817.63797   -36.000759   -37.269015     1.268256   -32.722242    609.95841    8611.6735    19.189234    19.189234    23.386879   0.49374753 
  180000    873.75647   -35.759922   -37.115225    1.3553027   -36.024281   -49.183115    8611.6735    19.189234    19.189234    23.386879   0.49374753 
  181000    1094.8435   -34.559102   -36.257338    1.6982355   -41.666129   -1322.2414    8611.6735    19.189234    19.189234    23.386879   0.49374753 
  182000    1103.2104   -34.767834   -36.479048    1.7112136   -34.051804    133.21525    8611.6735    19.189234    19.189234    23.386879   0.49374753 
  183000    1172.4388   -35.299245    -37.11784    1.8185953   -33.320223    368.19119    8611.6735    19.189234    19.189234    23.386879   0.49374753 
  184000    659.61641   -36.502595    -37.52574    1.0231454   -37.810285   -243.29187    8611.6735    19.189234    19.189234    23.386879   0.49374753 
  185000    888.99543   -34.959926   -36.338866    1.3789401   -37.600994     -491.363    8611.6735    19.189234    19.189234    23.386879   0.49374753 
  186000    928.53681    -35.76707   -37.207344    1.4402736   -33.584542    406.05287    8611.6735    19.189234    19.189234    23.386879   0.49374753 
  187000    665.75766   -36.021828     -37.0545    1.0326712   -38.996145    -553.3629    8611.6735    19.189234    19.189234    23.386879   0.49374753 
  188000    1089.2107   -35.359717   -37.049216    1.6894985   -33.230979    396.04545    8611.6735    19.189234    19.189234    23.386879   0.49374753 
  189000    1372.8283    -34.90563   -37.035054    2.1294238   -32.238617    496.18992    8611.6735    19.189234    19.189234    23.386879   0.49374753 
  190000    974.52146   -35.322099   -36.833701    1.5116014   -37.641472   -431.51242    8611.6735    19.189234    19.189234    23.386879   0.49374753 
  191000    792.77449   -35.384742   -36.614432    1.2296897   -40.521376   -955.65557    8611.6735    19.189234    19.189234    23.386879   0.49374753 
  192000    1026.9858   -36.092681   -37.685661    1.5929799   -30.572323    1027.0464    8611.6735    19.189234    19.189234    23.386879   0.49374753 
  193000    854.37662   -35.091254   -36.416497    1.3252422   -31.511694    665.96658    8611.6735    19.189234    19.189234    23.386879   0.49374753 
  194000    979.06968   -34.887256   -36.405912    1.5186563   -38.935738   -753.20817    8611.6735    19.189234    19.189234    23.386879   0.49374753 
  195000    1180.4135   -34.192849   -36.023814     1.830965   -39.193437   -930.34463    8611.6735    19.189234    19.189234    23.386879   0.49374753 
  196000    1000.9379   -34.301347   -35.853924    1.5525765     -30.9799     617.9455    8611.6735    19.189234    19.189234    23.386879   0.49374753 
  197000    677.82403   -35.417962    -36.46935    1.0513876   -31.811865    670.90376    8611.6735    19.189234    19.189234    23.386879   0.49374753 
  198000    708.52524   -35.122292   -36.221301    1.0990089   -36.157768   -192.64724    8611.6735    19.189234    19.189234    23.386879   0.49374753 
  199000    595.49363   -35.419012   -36.342695   0.92368312   -30.293671    953.55462    8611.6735    19.189234    19.189234    23.386879   0.49374753 
  200000    1289.3721   -34.151029   -36.151002    1.9999732   -33.247583    168.08348    8611.6735    19.189234    19.189234    23.386879   0.49374753 
  201000    826.13902   -34.691139   -35.972581    1.2814422   -39.750439   -941.26796    8611.6735    19.189234    19.189234    23.386879   0.49374753 
  202000    1103.1192   -34.521831   -36.232903    1.7110722   -36.108859   -295.26189    8611.6735    19.189234    19.189234    23.386879   0.49374753 
  203000    1288.8782   -33.832094   -35.831301    1.9992069   -29.296539    843.82665    8611.6735    19.189234    19.189234    23.386879   0.49374753 
  204000    981.97455   -34.490369   -36.013531    1.5231621   -35.573883   -201.58462    8611.6735    19.189234    19.189234    23.386879   0.49374753 
  205000    555.20839   -35.521095    -36.38229    0.8611958   -39.829916   -801.64347    8611.6735    19.189234    19.189234    23.386879   0.49374753 
  206000    773.61188   -35.081776   -36.281742    1.1999662   -40.959161   -1093.4703    8611.6735    19.189234    19.189234    23.386879   0.49374753 
  207000    1183.8239   -33.711351   -35.547606     1.836255   -35.914827   -409.95037    8611.6735    19.189234    19.189234    23.386879   0.49374753 
  208000    698.17096   -34.689633   -35.772581    1.0829481   -27.576573    1323.3638    8611.6735    19.189234    19.189234    23.386879   0.49374753 
  209000    769.77901   -34.829444   -36.023465     1.194021   -31.634582    594.39474    8611.6735    19.189234    19.189234    23.386879   0.49374753 
  210000    1029.7001   -34.289366   -35.886556    1.5971901    -37.97455   -685.61766    8611.6735    19.189234    19.189234    23.386879   0.49374753 
  211000    862.54013    -34.26212   -35.600025    1.3379047   -40.850296   -1225.7107    8611.6735    19.189234    19.189234    23.386879   0.49374753 
  212000    905.30013   -34.465778   -35.870008    1.4042307   -36.529282   -383.90885    8611.6735    19.189234    19.189234    23.386879   0.49374753 
  213000    1441.4853   -33.855746   -36.091665    2.2359191   -34.748521   -166.09818    8611.6735    19.189234    19.189234    23.386879   0.49374753 
  214000    825.41992     -33.9923   -35.272627    1.2803268   -32.315733    311.92028    8611.6735    19.189234    19.189234    23.386879   0.49374753 
  215000    1405.3353   -32.889204    -35.06905    2.1798461   -31.980599    169.04338    8611.6735    19.189234    19.189234    23.386879   0.49374753 
  216000     1286.546   -34.186161    -36.18175    1.9955894   -36.227011   -379.69413    8611.6735    19.189234    19.189234    23.386879   0.49374753 
  217000    1004.9544   -34.189333   -35.748139    1.5588066   -28.299344     1095.815    8611.6735    19.189234    19.189234    23.386879   0.49374753 
  218000     372.1565   -35.309877   -35.887137   0.57726004    -36.05729   -139.05399    8611.6735    19.189234    19.189234    23.386879   0.49374753 
  219000    901.61985   -34.486726   -35.885248    1.3985222   -32.035625    456.02016    8611.6735    19.189234    19.189234    23.386879   0.49374753 
  220000    882.48603   -34.602275   -35.971118    1.3688433   -37.345301   -510.33192    8611.6735    19.189234    19.189234    23.386879   0.49374753 
  221000    985.28428   -34.940041   -36.468337    1.5282959   -36.981122   -379.73705    8611.6735    19.189234    19.189234    23.386879   0.49374753 
  222000    801.19551    -34.87329   -36.116042    1.2427518   -33.054283    338.42092    8611.6735    19.189234    19.189234    23.386879   0.49374753 
  223000    667.38242   -35.618005   -36.653197    1.0351914   -33.631598     369.5652    8611.6735    19.189234    19.189234    23.386879   0.49374753 
  224000    818.75405   -35.351003    -36.62099    1.2699872    -33.94793    261.03756    8611.6735    19.189234    19.189234    23.386879   0.49374753 
  225000    1028.4642   -35.273952   -36.869225    1.5952732   -36.139984   -161.12281    8611.6735    19.189234    19.189234    23.386879   0.49374753 
  226000    1107.5532   -34.654642   -36.372592    1.7179499   -34.214582     81.87175    8611.6735    19.189234    19.189234    23.386879   0.49374753 
  227000    765.16245   -35.195195   -36.382055    1.1868601   -33.722888    273.91839    8611.6735    19.189234    19.189234    23.386879   0.49374753 
  228000    811.99781   -36.089658   -37.349166    1.2595075   -36.474401   -71.580334    8611.6735    19.189234    19.189234    23.386879   0.49374753 
  229000    1304.9297   -34.763378   -36.787483    2.0241049   -34.729286     6.342749    8611.6735    19.189234    19.189234    23.386879   0.49374753 
  230000    1332.1304    -35.62971   -37.696006    2.0662964   -33.773689    345.30724    8611.6735    19.189234    19.189234    23.386879   0.49374753 
  231000    933.40905   -35.440672   -36.888503    1.4478311   -33.732915    317.72328    8611.6735    19.189234    19.189234    23.386879   0.49374753 
  232000    897.36848   -36.083876   -37.475803    1.3919278   -37.714519   -303.37644    8611.6735    19.189234    19.189234    23.386879   0.49374753 
  233000    930.35781   -36.056028   -37.499126    1.4430982   -34.729161    246.85969    8611.6735    19.189234    19.189234    23.386879   0.49374753 
  234000    1143.4412   -35.634215   -37.407832    1.7736165   -35.536731    18.136675    8611.6735    19.189234    19.189234    23.386879   0.49374753 
  235000    986.75642    -35.61705    -37.14763    1.5305793   -38.249358   -489.73303    8611.6735    19.189234    19.189234    23.386879   0.49374753 
  236000    1020.6613   -35.260091   -36.843261    1.5831699   -34.967623    54.412669    8611.6735    19.189234    19.189234    23.386879   0.49374753 
  237000    630.30599   -36.009358    -36.98704   0.97768132   -34.894177    207.47623    8611.6735    19.189234    19.189234    23.386879   0.49374753 
  238000    1434.9441   -34.840062   -37.065835    2.2257729   -36.811563   -366.79194    8611.6735    19.189234    19.189234    23.386879   0.49374753 
  239000    869.73544   -36.148609   -37.497675    1.3490655   -33.868268    424.25084    8611.6735    19.189234    19.189234    23.386879   0.49374753 
  240000    1435.3211   -34.384943     -36.6113    2.2263577   -33.463777    171.38016    8611.6735    19.189234    19.189234    23.386879   0.49374753 
  241000    1096.8608   -35.574033   -37.275398    1.7013646   -31.859496    691.07874    8611.6735    19.189234    19.189234    23.386879   0.49374753 
  242000    655.65487   -36.249958   -37.266959    1.0170005   -38.901507   -493.31276    8611.6735    19.189234    19.189234    23.386879   0.49374753 
  243000    976.42495   -36.314937   -37.829491     1.514554   -39.641648    -618.9249    8611.6735    19.189234    19.189234    23.386879   0.49374753 
  244000     886.2814   -36.211143   -37.585874    1.3747303    -32.62609    666.98862    8611.6735    19.189234    19.189234    23.386879   0.49374753 
  245000    811.48788   -36.265775   -37.524492    1.2587165   -35.025416    230.76512    8611.6735    19.189234    19.189234    23.386879   0.49374753 
  246000    894.21512    -35.50388   -36.890917    1.3870365   -35.957225   -84.343357    8611.6735    19.189234    19.189234    23.386879   0.49374753 
  247000    728.94614   -35.808118   -36.938802    1.1306842   -38.630679    -525.1292    8611.6735    19.189234    19.189234    23.386879   0.49374753 
  248000    610.87981   -36.560144   -37.507693   0.94754895   -36.919356   -66.830445    8611.6735    19.189234    19.189234    23.386879   0.49374753 
  249000    1050.5695   -35.986785   -37.616346    1.6295611   -33.048361    546.68503    8611.6735    19.189234    19.189234    23.386879   0.49374753 
  250000    962.28043    -35.62818   -37.120794    1.4926141   -34.568974    197.06208    8611.6735    19.189234    19.189234    23.386879   0.49374753 
  251000    851.70829   -35.635616    -36.95672    1.3211033   -42.588188   -1293.5054    8611.6735    19.189234    19.189234    23.386879   0.49374753 
  252000    675.61357   -36.783899   -37.831858    1.0479589   -32.220912     848.9302    8611.6735    19.189234    19.189234    23.386879   0.49374753 
  253000    822.61471   -36.575012   -37.850988    1.2759756   -35.591757    182.93167    8611.6735    19.189234    19.189234    23.386879   0.49374753 
  254000    686.54943   -35.903343   -36.968265    1.0649217   -38.794904    -537.9665    8611.6735    19.189234    19.189234    23.386879   0.49374753 
  255000    873.33556   -35.404587   -36.759237    1.3546498   -41.397777   -1115.0153    8611.6735    19.189234    19.189234    23.386879   0.49374753 
  256000    1135.5284   -35.390935   -37.152278    1.7613428   -34.695206    129.43826    8611.6735    19.189234    19.189234    23.386879   0.49374753 
  257000    1405.1417    -35.02935   -37.208896    2.1795459   -29.032073    1115.7758    8611.6735    19.189234    19.189234    23.386879   0.49374753 
  258000    1017.0624   -36.079503    -37.65709    1.5775876   -38.489906    -448.4485    8611.6735    19.189234    19.189234    23.386879   0.49374753 
  259000    667.11853   -36.017284   -37.052066    1.0347821   -44.400762   -1559.7215    8611.6735    19.189234    19.189234    23.386879   0.49374753 
  260000    1258.0971   -35.690213   -37.641675    1.9514617   -34.544702    213.11889    8611.6735    19.189234    19.189234    23.386879   0.49374753 
  261000    970.43728   -36.419134     -37.9244    1.5052664   -29.690829    1251.7813    8611.6735    19.189234    19.189234    23.386879   0.49374753 
  262000    977.42896   -36.282188   -37.798299    1.5161113   -37.289311   -187.37233    8611.6735    19.189234    19.189234    23.386879   0.49374753 
  263000    822.29578   -36.155445   -37.430926    1.2754809   -36.842006   -127.73256    8611.6735    19.189234    19.189234    23.386879   0.49374753 
  264000    593.04822   -35.764936   -36.684826   0.91988999   -32.762784    558.54142    8611.6735    19.189234    19.189234    23.386879   0.49374753 
  265000    1158.4345   -34.370117    -36.16699     1.796873   -35.038696   -124.38714    8611.6735    19.189234    19.189234    23.386879   0.49374753 
  266000    875.76806   -35.647031   -37.005454    1.3584229   -38.806432   -587.79724    8611.6735    19.189234    19.189234    23.386879   0.49374753 
  267000     953.6662   -35.428292   -36.907544    1.4792524   -40.045728   -859.06038    8611.6735    19.189234    19.189234    23.386879   0.49374753 
  268000     693.7015   -36.165383   -37.241399    1.0760155   -38.493442   -433.12857    8611.6735    19.189234    19.189234    23.386879   0.49374753 
  269000    938.45514   -35.626716   -37.082374    1.4556582   -32.995577    489.51565    8611.6735    19.189234    19.189234    23.386879   0.49374753 
  270000    848.04701   -35.018242   -36.333666    1.3154242   -32.418098    483.74906    8611.6735    19.189234    19.189234    23.386879   0.49374753 
  271000     855.6717    -36.26945   -37.596701     1.327251    -34.61168    308.42323    8611.6735    19.189234    19.189234    23.386879   0.49374753 
  272000    560.89681   -36.529056   -37.399075   0.87001923   -40.634721   -763.84693    8611.6735    19.189234    19.189234    23.386879   0.49374753 
  273000    1361.2267   -35.101437   -37.212865    2.1114284   -40.071918   -924.74337    8611.6735    19.189234    19.189234    23.386879   0.49374753 
  274000     815.7176   -35.862069   -37.127346    1.2652773   -26.826502    1681.0406    8611.6735    19.189234    19.189234    23.386879   0.49374753 
  275000    1051.5815   -35.708727   -37.339858    1.6311309   -31.350928    810.75566    8611.6735    19.189234    19.189234    23.386879   0.49374753 
  276000    805.38841    -35.98389   -37.233145    1.2492555   -40.946851   -923.34428    8611.6735    19.189234    19.189234    23.386879   0.49374753 
  277000    838.37563   -36.429608   -37.730031    1.3004227   -42.191713   -1072.0226    8611.6735    19.189234    19.189234    23.386879   0.49374753 
  278000    1075.7537   -35.375766   -37.044391     1.668625   -28.305458      1315.41    8611.6735    19.189234    19.189234    23.386879   0.49374753 
  279000    867.02315   -36.111438   -37.456297    1.3448585   -34.279682    340.79297    8611.6735    19.189234    19.189234    23.386879   0.49374753 
  280000    1198.0774   -35.478243   -37.336607    1.8583639   -41.239505   -1071.8658    8611.6735    19.189234    19.189234    23.386879   0.49374753 
  281000    910.02691   -36.026153   -37.437716    1.4115625   -34.648624    256.28524    8611.6735    19.189234    19.189234    23.386879   0.49374753 
  282000     1040.078   -35.259895   -36.873183    1.6132876   -28.843179    1193.8112    8611.6735    19.189234    19.189234    23.386879   0.49374753 
  283000    895.51992   -35.857549   -37.246609    1.3890604   -37.538885   -312.80758    8611.6735    19.189234    19.189234    23.386879   0.49374753 
  284000    679.34565   -35.779481   -36.833229    1.0537478   -44.862174   -1689.8082    8611.6735    19.189234    19.189234    23.386879   0.49374753 
  285000    805.72786   -36.028259   -37.278041     1.249782   -34.708003    245.62971    8611.6735    19.189234    19.189234    23.386879   0.49374753 
  286000    1031.2783   -34.741172   -36.340811    1.5996382   -30.145024    855.09987    8611.6735    19.189234    19.189234    23.386879   0.49374753 
  287000     1018.246   -36.086695   -37.666119    1.5794235   -32.611138    646.61728    8611.6735    19.189234    19.189234    23.386879   0.49374753 
  288000    755.77277   -35.993668   -37.165964    1.1722956   -42.324602   -1177.8516    8611.6735    19.189234    19.189234    23.386879   0.49374753 
  289000    974.19916   -35.405956   -36.917058    1.5111015   -35.980029   -106.80464    8611.6735    19.189234    19.189234    23.386879   0.49374753 
  290000    963.66422   -36.117096   -37.611857    1.4947605   -34.720597    259.81454    8611.6735    19.189234    19.189234    23.386879   0.49374753 
  291000    910.58572   -35.794315   -37.206744    1.4124293   -35.298665    92.214193    8611.6735    19.189234    19.189234    23.386879   0.49374753 
  292000    772.04462   -36.418064     -37.6156    1.1975352    -33.21457    596.00075    8611.6735    19.189234    19.189234    23.386879   0.49374753 
  293000    597.46782   -35.849161   -36.775907   0.92674532   -32.950771    539.23698    8611.6735    19.189234    19.189234    23.386879   0.49374753 
  294000    1050.5516   -35.426698   -37.056231    1.6295334   -38.188467   -513.81902    8611.6735    19.189234    19.189234    23.386879   0.49374753 
  295000    979.54515   -35.562814   -37.082208    1.5193938   -41.821924    -1164.489    8611.6735    19.189234    19.189234    23.386879   0.49374753 
  296000    1176.4591   -35.620359   -37.445191    1.8248313   -34.792385    154.04218    8611.6735    19.189234    19.189234    23.386879   0.49374753 
  297000    936.76384   -35.889777   -37.342812    1.4530348     -33.1378    511.99726    8611.6735    19.189234    19.189234    23.386879   0.49374753 
  298000    723.28225   -36.306375   -37.428274    1.1218988   -35.834743    87.745801    8611.6735    19.189234    19.189234    23.386879   0.49374753 
  299000    720.48082   -35.887552   -37.005105    1.1175535   -37.309897   -264.62312    8611.6735    19.189234    19.189234    23.386879   0.49374753 
  300000    636.90823   -35.989931   -36.977853    0.9879222   -35.865439    23.161373    8611.6735    19.189234    19.189234    23.386879   0.49374753 
  301000    777.25172   -35.858896   -37.064508     1.205612   -33.112668    510.92753    8611.6735    19.189234    19.189234    23.386879   0.49374753 
  302000    766.64037    -36.07564   -37.264793    1.1891525   -34.424483    307.19293    8611.6735    19.189234    19.189234    23.386879   0.49374753 
  303000    573.84459   -36.851919   -37.742022   0.89010281   -35.379944    273.85659    8611.6735    19.189234    19.189234    23.386879   0.49374753 
  304000    525.22014   -36.769405   -37.584086   0.81468037   -39.530635   -513.71874    8611.6735    19.189234    19.189234    23.386879   0.49374753 
  305000     695.3061   -36.353347   -37.431851    1.0785044   -38.727073   -441.62486    8611.6735    19.189234    19.189234    23.386879   0.49374753 
  306000    1353.7426   -35.443799   -37.543619    2.0998195   -33.309339    397.11009    8611.6735    19.189234    19.189234    23.386879   0.49374753 
  307000    837.89851   -36.632588   -37.932271    1.2996826   -34.179356     456.4165    8611.6735    19.189234    19.189234    23.386879   0.49374753 
  308000    1162.5804     -36.0032   -37.806503    1.8033037   -35.323352    126.48361    8611.6735    19.189234    19.189234    23.386879   0.49374753 
  309000    1131.3351   -35.357191   -37.112029    1.7548385   -35.875507   -96.431106    8611.6735    19.189234    19.189234    23.386879   0.49374753 
  310000    575.93618    -36.07186   -36.965208   0.89334713   -35.135455    174.21546    8611.6735    19.189234    19.189234    23.386879   0.49374753 
  311000    1091.5665   -36.008557    -37.70171    1.6931526   -34.189533    338.42405    8611.6735    19.189234    19.189234    23.386879   0.49374753 
  312000    785.22279   -36.340604   -37.558581    1.2179761   -38.194148   -344.84627    8611.6735    19.189234    19.189234    23.386879   0.49374753 
  313000    690.22006   -36.350568   -37.421183    1.0706153   -35.770748    107.87376    8611.6735    19.189234    19.189234    23.386879   0.49374753 
  314000    1044.1904   -35.484808   -37.104475    1.6196665   -35.729719   -45.564865    8611.6735    19.189234    19.189234    23.386879   0.49374753 
  315000    1376.0211   -34.670376   -36.804753    2.1343763   -34.663273    1.3215298    8611.6735    19.189234    19.189234    23.386879   0.49374753 
  316000    809.77751   -36.467206   -37.723269    1.2560635   -37.618228   -214.14434    8611.6735    19.189234    19.189234    23.386879   0.49374753 
  317000     697.4234   -35.498316   -36.580105    1.0817886   -39.496342   -743.82089    8611.6735    19.189234    19.189234    23.386879   0.49374753 
  318000    1000.3624   -35.575858   -37.127541    1.5516838   -33.094251    461.69563    8611.6735    19.189234    19.189234    23.386879   0.49374753 
  319000    1412.8241   -34.569189   -36.760651    2.1914622   -33.265086     242.6244    8611.6735    19.189234    19.189234    23.386879   0.49374753 
  320000     796.9539   -36.291454   -37.527627    1.2361725   -38.182135   -351.75556    8611.6735    19.189234    19.189234    23.386879   0.49374753 
  321000    950.53266   -35.375655   -36.850047    1.4743919   -35.907657   -98.977275    8611.6735    19.189234    19.189234    23.386879   0.49374753 
  322000    921.01718     -35.2825    -36.71111    1.4286098   -34.380436    167.82636    8611.6735    19.189234    19.189234    23.386879   0.49374753 
  323000    1010.4886   -35.366594   -36.933985    1.5673908   -37.564851   -408.97932    8611.6735    19.189234    19.189234    23.386879   0.49374753 
  324000    601.22668   -36.419322   -37.351898   0.93257578   -36.063654    66.170875    8611.6735    19.189234    19.189234    23.386879   0.49374753 
  325000    1037.7789   -34.947693   -36.557414    1.6097215   -32.857779    388.82232    8611.6735    19.189234    19.189234    23.386879   0.49374753 
  326000     878.8095   -35.936071   -37.299212    1.3631405   -33.847482    388.57586    8611.6735    19.189234    19.189234    23.386879   0.49374753 
  327000    715.97009   -36.230876   -37.341433    1.1105568   -42.087386   -1089.5864    8611.6735    19.189234    19.189234    23.386879   0.49374753 
  328000    1093.7038   -35.868974   -37.565441    1.6964677   -31.944581    730.12172    8611.6735    19.189234    19.189234    23.386879   0.49374753 
  329000    1064.8856   -35.691672   -37.343439    1.6517671   -29.566446    1139.5804    8611.6735    19.189234    19.189234    23.386879   0.49374753 
  330000    1186.1242   -35.654763   -37.494586     1.839823    -37.74895   -389.61732    8611.6735    19.189234    19.189234    23.386879   0.49374753 
  331000    900.96587   -36.080491   -37.477998    1.3975078   -41.613199    -1029.344    8611.6735    19.189234    19.189234    23.386879   0.49374753 
  332000    885.55291   -35.251073   -36.624673    1.3736004    -37.04598   -333.93712    8611.6735    19.189234    19.189234    23.386879   0.49374753 
  333000      990.731   -35.926487   -37.463231    1.5367444   -36.325946   -74.318118    8611.6735    19.189234    19.189234    23.386879   0.49374753 
  334000    761.22758   -36.317952   -37.498708    1.1807566   -38.016369   -315.98558    8611.6735    19.189234    19.189234    23.386879   0.49374753 
  335000    778.75741   -35.972414   -37.180361    1.2079475   -37.905508   -359.64662    8611.6735    19.189234    19.189234    23.386879   0.49374753 
  336000    987.94725   -36.010862   -37.543289    1.5324265   -31.269121    882.18706    8611.6735    19.189234    19.189234    23.386879   0.49374753 
  337000    1161.5072   -34.863994   -36.665633     1.801639   -35.546933   -127.05872    8611.6735    19.189234    19.189234    23.386879   0.49374753 
  338000    670.32515   -35.879088   -36.918844    1.0397559    -41.64823   -1073.3319    8611.6735    19.189234    19.189234    23.386879   0.49374753 
  339000    744.57101   -36.442595   -37.597515    1.1549203     -35.3509     203.1067    8611.6735    19.189234    19.189234    23.386879   0.49374753 
  340000    1199.2239   -35.596942   -37.457084    1.8601423   -37.391448   -333.86264    8611.6735    19.189234    19.189234    23.386879   0.49374753 
  341000     789.1517   -36.242615   -37.466685    1.2240704   -39.210443   -552.15562    8611.6735    19.189234    19.189234    23.386879   0.49374753 
  342000    440.06397   -36.738125   -37.420717    0.6825928   -34.998153     323.7166    8611.6735    19.189234    19.189234    23.386879   0.49374753 
  343000    804.60141   -36.190029   -37.438064    1.2480347   -35.743823    83.015294    8611.6735    19.189234    19.189234    23.386879   0.49374753 
  344000    1291.2925   -35.710504   -37.713456    2.0029518   -35.459768    46.648616    8611.6735    19.189234    19.189234    23.386879   0.49374753 
  345000    595.54563   -36.506315   -37.430078   0.92376377   -38.919999   -449.05891    8611.6735    19.189234    19.189234    23.386879   0.49374753 
  346000    811.84099   -35.987091   -37.246355    1.2592642   -36.126899   -26.010933    8611.6735    19.189234    19.189234    23.386879   0.49374753 
  347000    1139.1794   -35.594239   -37.361245    1.7670059   -34.714662     163.6427    8611.6735    19.189234    19.189234    23.386879   0.49374753 
  348000    685.14822    -36.50905   -37.571798    1.0627483   -36.843517   -62.226637    8611.6735    19.189234    19.189234    23.386879   0.49374753 
  349000    660.67395   -36.729642   -37.754427    1.0247857   -38.728961   -371.96742    8611.6735    19.189234    19.189234    23.386879   0.49374753 
  350000    787.59716     -36.5757   -37.797359    1.2216591   -31.160546    1007.4734    8611.6735    19.189234    19.189234    23.386879   0.49374753 
  351000    550.35206   -36.938415   -37.792078   0.85366304   -32.468075    831.69351    8611.6735    19.189234    19.189234    23.386879   0.49374753 
  352000    615.16743    -36.51168    -37.46588   0.95419957   -38.289485   -330.75528    8611.6735    19.189234    19.189234    23.386879   0.49374753 
  353000    897.03946   -35.669211   -37.060629    1.3914174   -38.062248   -445.21738    8611.6735    19.189234    19.189234    23.386879   0.49374753 
  354000    740.42652    -36.46894   -37.617432    1.1484917   -34.746147    320.52065    8611.6735    19.189234    19.189234    23.386879   0.49374753 
  355000    1262.4329   -35.265154   -37.223341    1.9581871   -30.126734    955.98791    8611.6735    19.189234    19.189234    23.386879   0.49374753 
  356000    975.81522   -35.968079   -37.481687    1.5136082   -32.896092    571.53404    8611.6735    19.189234    19.189234    23.386879   0.49374753 
  357000    646.96673   -36.127234   -37.130758    1.0035242   -40.780986   -865.81687    8611.6735    19.189234    19.189234    23.386879   0.49374753 
  358000    680.95998     -36.6239   -37.680151    1.0562518   -39.613684   -556.24059    8611.6735    19.189234    19.189234    23.386879   0.49374753 
  359000     1153.356   -35.771651   -37.560647    1.7889956   -33.407935    439.76237    8611.6735    19.189234    19.189234    23.386879   0.49374753 
  360000    877.46184   -36.053966   -37.415016    1.3610501   -32.223244    712.69453    8611.6735    19.189234    19.189234    23.386879   0.49374753 
  361000    800.64856   -36.138194   -37.380097    1.2419034   -42.223202   -1132.0979    8611.6735    19.189234    19.189234    23.386879   0.49374753 
  362000    1003.6733   -36.026935   -37.583754    1.5568195   -38.686014   -494.71384    8611.6735    19.189234    19.189234    23.386879   0.49374753 
  363000    912.93925   -36.263594   -37.679674    1.4160799   -28.921957    1365.8899    8611.6735    19.189234    19.189234    23.386879   0.49374753 
  364000    1144.3304   -36.033089   -37.808085    1.7749957   -37.487125   -270.51905    8611.6735    19.189234    19.189234    23.386879   0.49374753 
  365000    785.16811   -36.411058   -37.628949    1.2178913   -39.451508   -565.66682    8611.6735    19.189234    19.189234    23.386879   0.49374753 
  366000    679.82793    -36.41459   -37.469086    1.0544959   -29.952449    1202.2622    8611.6735    19.189234    19.189234    23.386879   0.49374753 
  367000    1000.3119   -36.020427   -37.572033    1.5516056   -36.676808   -122.11758    8611.6735    19.189234    19.189234    23.386879   0.49374753 
  368000    529.58956    -36.12444   -36.945898   0.82145788   -43.454069    -1363.656    8611.6735    19.189234    19.189234    23.386879   0.49374753 
  369000    639.84404   -36.704839   -37.697315     0.992476   -34.388987    430.85747    8611.6735    19.189234    19.189234    23.386879   0.49374753 
  370000     1096.311   -35.723485   -37.423997    1.7005118   -23.550068    2264.8285    8611.6735    19.189234    19.189234    23.386879   0.49374753 
  371000    851.80424   -36.443189   -37.764441    1.3212521   -37.092309   -120.76695    8611.6735    19.189234    19.189234    23.386879   0.49374753 
  372000    591.01251   -36.559067   -37.475799   0.91673235   -41.718726   -959.93939    8611.6735    19.189234    19.189234    23.386879   0.49374753 
  373000    705.56523   -36.410087   -37.504504    1.0944176   -34.766362    305.81014    8611.6735    19.189234    19.189234    23.386879   0.49374753 
  374000    835.18407   -35.985798    -37.28127    1.2954722   -30.501824    1020.2771    8611.6735    19.189234    19.189234    23.386879   0.49374753 
  375000    761.08707   -35.325398   -36.505936    1.1805387   -35.177209    27.570041    8611.6735    19.189234    19.189234    23.386879   0.49374753 
  376000    676.07724   -36.568237   -37.616915    1.0486781   -39.386733   -524.37274    8611.6735    19.189234    19.189234    23.386879   0.49374753 
  377000    920.93825   -35.849325   -37.277812    1.4284873   -32.676914    590.21775    8611.6735    19.189234    19.189234    23.386879   0.49374753 
  378000    1137.9198   -35.340663   -37.105716    1.7650521   -36.824203   -276.00812    8611.6735    19.189234    19.189234    23.386879   0.49374753 
  379000    982.18274   -35.503375    -37.02686     1.523485   -38.061461   -475.92429    8611.6735    19.189234    19.189234    23.386879   0.49374753 
  380000    617.35751   -35.964644   -36.922241   0.95759665    -36.79866   -155.16626    8611.6735    19.189234    19.189234    23.386879   0.49374753 
  381000    838.82191   -35.817466   -37.118581    1.3011149   -41.487297   -1054.8554    8611.6735    19.189234    19.189234    23.386879   0.49374753 
  382000    1122.3008   -35.299504    -37.04033    1.7408252   -34.836246    86.187791    8611.6735    19.189234    19.189234    23.386879   0.49374753 
  383000    1124.2934   -34.747169   -36.491085    1.7439159   -29.126681    1045.6753    8611.6735    19.189234    19.189234    23.386879   0.49374753 
  384000    894.14271   -35.672275     -37.0592    1.3869242   -33.934599    323.28954    8611.6735    19.189234    19.189234    23.386879   0.49374753 
  385000    691.66516   -35.949205   -37.022062    1.0728569   -38.231653   -424.64269    8611.6735    19.189234    19.189234    23.386879   0.49374753 
  386000    582.27872   -36.324518   -37.227703   0.90318519   -37.675726   -251.38834    8611.6735    19.189234    19.189234    23.386879   0.49374753 
[...]
 2020000    75.871374   -38.498961   -38.616646   0.11768574   -39.236703   -137.25474    8611.6735    19.189234    19.189234    23.386879   0.49374753 
 2021000     34.72127   -38.547082   -38.600939  0.053856917   -38.519059    5.2135415    8611.6735    19.189234    19.189234    23.386879   0.49374753 
 2022000    40.506296    -38.53273    -38.59556  0.062830196    -37.85845    125.44789    8611.6735    19.189234    19.189234    23.386879   0.49374753 
 2023000    50.380897   -38.554841   -38.632988  0.078146904   -38.597732   -7.9797591    8611.6735    19.189234    19.189234    23.386879   0.49374753 
 2024000    38.221617   -38.580334    -38.63962   0.05928638   -38.966501   -71.845286    8611.6735    19.189234    19.189234    23.386879   0.49374753 
 2025000    34.812898   -38.570747   -38.624746  0.053999043   -38.594134   -4.3511315    8611.6735    19.189234    19.189234    23.386879   0.49374753 
 2026000     34.17779   -38.562902   -38.615916  0.053013913   -38.280304    52.576459    8611.6735    19.189234    19.189234    23.386879   0.49374753 
 2027000    33.992524   -38.560585   -38.613312  0.052726543   -38.334163    42.125175    8611.6735    19.189234    19.189234    23.386879   0.49374753 
 2028000    51.609851   -38.524531   -38.604584  0.080053161   -39.198725   -125.43172    8611.6735    19.189234    19.189234    23.386879   0.49374753 
 2029000    34.505184    -38.57392   -38.627442  0.053521741   -38.837539    -49.04541    8611.6735    19.189234    19.189234    23.386879   0.49374753 
 2030000    30.403412   -38.593948   -38.641107  0.047159393   -38.132191    85.908519    8611.6735    19.189234    19.189234    23.386879   0.49374753 
 2031000    47.306624   -38.550746   -38.624125  0.073378334   -38.090735    85.583731    8611.6735    19.189234    19.189234    23.386879   0.49374753 
 2032000    26.294237   -38.585573   -38.626359  0.040785562   -39.209812   -116.13781    8611.6735    19.189234    19.189234    23.386879   0.49374753 
 2033000    27.839027    -38.59287   -38.636052   0.04318172   -38.897587   -56.691668    8611.6735    19.189234    19.189234    23.386879   0.49374753 
 2034000    34.353976   -38.588495   -38.641782    0.0532872   -37.759329    154.26385    8611.6735    19.189234    19.189234    23.386879   0.49374753 
 2035000    32.974507   -38.586497   -38.637645  0.051147475   -38.111814    88.313325    8611.6735    19.189234    19.189234    23.386879   0.49374753 
 2036000    37.129803   -38.578747    -38.63634  0.057592844   -39.383023   -149.63326    8611.6735    19.189234    19.189234    23.386879   0.49374753 
 2037000     32.56447   -38.578226   -38.628738  0.050511457   -38.935159   -66.406191    8611.6735    19.189234    19.189234    23.386879   0.49374753 
 2038000     23.82447   -38.574778   -38.611733  0.036954653    -37.79014     145.9796    8611.6735    19.189234    19.189234    23.386879   0.49374753 
 2039000     24.63905   -38.592366   -38.630584  0.038218166   -38.090352     93.39824    8611.6735    19.189234    19.189234    23.386879   0.49374753 
 2040000    27.420357   -38.594147   -38.636679  0.042532312   -39.480098   -164.82865    8611.6735    19.189234    19.189234    23.386879   0.49374753 
 2041000    29.303127    -38.59252   -38.637972  0.045452718   -38.802134   -38.998187    8611.6735    19.189234    19.189234    23.386879   0.49374753 
 2042000    33.967676   -38.577517   -38.630205     0.052688   -37.473441    205.41009    8611.6735    19.189234    19.189234    23.386879   0.49374753 
 2043000    28.351459   -38.589064   -38.633041  0.043976565   -38.557666    5.8414852    8611.6735    19.189234    19.189234    23.386879   0.49374753 
 2044000    44.879063   -38.565802   -38.635415  0.069612891   -39.789583    -227.6807    8611.6735    19.189234    19.189234    23.386879   0.49374753 
 2045000    18.922273    -38.59495     -38.6243   0.02935075    -38.43381    29.979512    8611.6735    19.189234    19.189234    23.386879   0.49374753 
 2046000    29.344339   -38.577404   -38.622921  0.045516643    -37.42524    214.35686    8611.6735    19.189234    19.189234    23.386879   0.49374753 
 2047000    30.985382   -38.582231   -38.630293    0.0480621   -39.130586   -102.01993    8611.6735    19.189234    19.189234    23.386879   0.49374753 
 2048000    25.601005    -38.59983   -38.639541  0.039710276   -39.496272   -166.78031    8611.6735    19.189234    19.189234    23.386879   0.49374753 
 2049000    20.989144   -38.592651   -38.625208  0.032556717   -37.832004    141.51602    8611.6735    19.189234    19.189234    23.386879   0.49374753 
 2050000     32.22164   -38.568664   -38.618644  0.049979687   -37.437764     210.4007    8611.6735    19.189234    19.189234    23.386879   0.49374753 
 2051000    20.168168   -38.595626   -38.626909  0.031283283   -39.633976   -193.18197    8611.6735    19.189234    19.189234    23.386879   0.49374753 
 2052000    25.628528   -38.613311   -38.653064  0.039752966    -39.01376   -74.502374    8611.6735    19.189234    19.189234    23.386879   0.49374753 
 2053000     16.90907   -38.614926   -38.641154  0.026228026   -37.675535    174.77101    8611.6735    19.189234    19.189234    23.386879   0.49374753 
 2054000    28.342043   -38.603994   -38.647956  0.043961959   -38.197449    75.636521    8611.6735    19.189234    19.189234    23.386879   0.49374753 
 2055000    22.715164    -38.60356   -38.638794  0.035233984   -40.066243   -272.12795    8611.6735    19.189234    19.189234    23.386879   0.49374753 
 2056000    19.582092   -38.615217   -38.645591  0.030374209   -38.501535    21.150145    8611.6735    19.189234    19.189234    23.386879   0.49374753 
 2057000    19.152211   -38.620231   -38.649939  0.029707411   -37.622684    185.59064    8611.6735    19.189234    19.189234    23.386879   0.49374753 
 2058000    26.402161   -38.607089   -38.648042  0.040952966   -38.783635   -32.845805    8611.6735    19.189234    19.189234    23.386879   0.49374753 
 2059000    12.959187   -38.626921   -38.647022  0.020101276   -39.531035   -168.20781    8611.6735    19.189234    19.189234    23.386879   0.49374753 
 2060000    19.584735   -38.622395   -38.652773  0.030378308   -38.128113    91.959704    8611.6735    19.189234    19.189234    23.386879   0.49374753 
 2061000    21.221678   -38.618533   -38.651451  0.032917405   -37.764819    158.83098    8611.6735    19.189234    19.189234    23.386879   0.49374753 
 2062000    19.679304   -38.621625    -38.65215  0.030524997   -39.571366   -176.69659    8611.6735    19.189234    19.189234    23.386879   0.49374753 
 2063000    14.880624   -38.628974   -38.652056   0.02308166    -38.95577   -60.799363    8611.6735    19.189234    19.189234    23.386879   0.49374753 
 2064000     14.09412   -38.617309   -38.639171  0.021861696    -37.47573    212.38745    8611.6735    19.189234    19.189234    23.386879   0.49374753 
 2065000    25.575787   -38.604905   -38.644576  0.039671159    -38.37974    41.891272    8611.6735    19.189234    19.189234    23.386879   0.49374753 
 2066000    19.187153   -38.602002   -38.631764   0.02976161   -39.968431    -254.2201    8611.6735    19.189234    19.189234    23.386879   0.49374753 
 2067000    20.273165     -38.6117   -38.643147  0.031446147   -38.626862   -2.8207592    8611.6735    19.189234    19.189234    23.386879   0.49374753 
 2068000    17.204543   -38.619995   -38.646682  0.026686341   -37.573479    194.70136    8611.6735    19.189234    19.189234    23.386879   0.49374753 
 2069000    15.083048   -38.625056   -38.648452  0.023395644   -39.141693    -96.11868    8611.6735    19.189234    19.189234    23.386879   0.49374753 
 2070000     16.70417   -38.628348   -38.654259  0.025910201   -39.228109   -111.58366    8611.6735    19.189234    19.189234    23.386879   0.49374753 
 2071000    11.784052   -38.637652   -38.655931    0.0182785   -38.128431    94.739151    8611.6735    19.189234    19.189234    23.386879   0.49374753 
 2072000    14.916888    -38.63831   -38.661448   0.02313791   -38.205813    80.464843    8611.6735    19.189234    19.189234    23.386879   0.49374753 
 2073000    9.3362166   -38.644722   -38.659203  0.014481609   -39.166186   -97.016867    8611.6735    19.189234    19.189234    23.386879   0.49374753 
 2074000    12.614429   -38.623065   -38.642631  0.019566516   -39.101962   -89.097387    8611.6735    19.189234    19.189234    23.386879   0.49374753 
 2075000    14.837037   -38.625649   -38.648663  0.023014051   -37.907807     133.5523    8611.6735    19.189234    19.189234    23.386879   0.49374753 
 2076000    10.951831   -38.642834   -38.659821  0.016987624   -38.397205    45.698487    8611.6735    19.189234    19.189234    23.386879   0.49374753 
 2077000    13.648801   -38.637343   -38.658514  0.021170952   -39.374338   -137.11573    8611.6735    19.189234    19.189234    23.386879   0.49374753 
 2078000     13.37154   -38.638307   -38.659048  0.020740886   -38.706622   -12.709634    8611.6735    19.189234    19.189234    23.386879   0.49374753 
 2079000    9.4212806    -38.64324   -38.657854  0.014613553   -37.889401    140.24956    8611.6735    19.189234    19.189234    23.386879   0.49374753 
 2080000    9.2993359   -38.652153   -38.666578  0.014424402   -38.741885   -16.694264    8611.6735    19.189234    19.189234    23.386879   0.49374753 
Loop time of 38.428 on 4 procs for 1980000 steps with 13 atoms

Performance: 2225.877 ns/day, 0.011 hours/ns, 51524.934 timesteps/s
83.5% CPU use with 4 MPI tasks x 1 OpenMP threads

MPI task timing breakdown:
Section |  min time  |  avg time  |  max time  |%varavg| %total
---------------------------------------------------------------
Pair    | 12.781     | 14.303     | 16.84      |  40.7 | 37.22
Neigh   | 0.005074   | 0.0065675  | 0.0087373  |   1.7 |  0.02
Comm    | 11.974     | 14.246     | 15.57      |  36.6 | 37.07
Output  | 0.16297    | 0.16818    | 0.18341    |   2.1 |  0.44
Modify  | 6.1762     | 6.6342     | 7.2682     |  17.3 | 17.26
Other   |            | 3.07       |            |       |  7.99

Nlocal:    3.25 ave 6 max 0 min
Histogram: 1 0 0 0 0 1 1 0 0 1
Nghost:    15.75 ave 22 max 10 min
Histogram: 1 1 0 0 0 0 0 1 0 1
Neighs:    19.5 ave 52 max 0 min
Histogram: 1 1 0 1 0 0 0 0 0 1

Total # of neighbors = 78
Ave neighs/atom = 6
Neighbor list builds = 1113
Dangerous builds = 0
unfix                  npt2
write_restart          restart.npt2
# NVE 3
timestep               ${dt}
timestep               0.0005
thermo_style           custom step temp etotal pe ke enthalpy press lx ly lz vol density
thermo                 1000
fix                    nve3 all nve
variable               Temp   equal  temp
variable               ETOT   equal  etotal/v_N
variable               KE     equal  ke/v_N
variable               PE     equal  pe/v_N
variable               Pr     equal  press
run                    ${run_nve3}
run                    50000
Per MPI rank memory allocation (min/avg/max) = 4.942 | 4.942 | 4.942 Mbytes
Step Temp TotEng PotEng KinEng Enthalpy Press Lx Ly Lz Volume Density 
 2080000    9.2993359   -38.652153   -38.666578  0.014424402   -38.741885   -16.694264    19.189234    19.189234    23.386879    8611.6735   0.49374753 
 2081000     5.096806   -38.652153   -38.660059 0.0079057665   -39.204366   -102.73762    19.189234    19.189234    23.386879    8611.6735   0.49374753 
 2082000    8.6961501   -38.652153   -38.665642  0.013488787   -38.518435    24.877943    19.189234    19.189234    23.386879    8611.6735   0.49374753 
 2083000      7.34528   -38.652153   -38.663547  0.011393423   -38.083372    105.81997    19.189234    19.189234    23.386879    8611.6735   0.49374753 
 2084000    7.7187705   -38.652153   -38.664126  0.011972753   -38.891864   -44.597491    19.189234    19.189234    23.386879    8611.6735   0.49374753 
 2085000    7.8688966   -38.652153   -38.664359  0.012205617   -39.163614   -95.155726    19.189234    19.189234    23.386879    8611.6735   0.49374753 
 2086000    6.9629662   -38.652153   -38.662953  0.010800408    -38.34011    58.054692    19.189234    19.189234    23.386879    8611.6735   0.49374753 
 2087000    7.3648467   -38.652153   -38.663577  0.011423774   -38.174045    88.950553    19.189234    19.189234    23.386879    8611.6735   0.49374753 
 2088000     6.172445   -38.652153   -38.661727 0.0095742137   -39.034545   -71.142962    19.189234    19.189234    23.386879    8611.6735   0.49374753 
 2089000    8.5143934   -38.652153    -38.66536  0.013206861   -39.071197    -77.96188    19.189234    19.189234    23.386879    8611.6735   0.49374753 
 2090000    6.8801708   -38.652153   -38.662825  0.010671982   -38.131366    96.890828    19.189234    19.189234    23.386879    8611.6735   0.49374753 
 2091000     9.899161   -38.652153   -38.667508  0.015354804   -38.352814    55.691115    19.189234    19.189234    23.386879    8611.6735   0.49374753 
 2092000    6.5470956   -38.652153   -38.662308  0.010155342   -39.154966   -93.546915    19.189234    19.189234    23.386879    8611.6735   0.49374753 
 2093000    8.7412109   -38.652153   -38.665712  0.013558682   -38.874474   -41.362084    19.189234    19.189234    23.386879    8611.6735   0.49374753 
 2094000    5.7453255   -38.652153   -38.661065 0.0089116993   -38.108039    101.23086    19.189234    19.189234    23.386879    8611.6735   0.49374753 
 2095000    7.7393828   -38.652153   -38.664158  0.012004725   -38.490534    30.068686    19.189234    19.189234    23.386879    8611.6735   0.49374753 
 2096000    5.3182428   -38.652153   -38.660402  0.008249242   -39.275658   -116.00133    19.189234    19.189234    23.386879    8611.6735   0.49374753 
 2097000    8.2926529   -38.652153   -38.665016  0.012862914   -38.734243   -15.272622    19.189234    19.189234    23.386879    8611.6735   0.49374753 
 2098000    6.0783426   -38.652153   -38.661581 0.0094282494    -38.03631    114.57579    19.189234    19.189234    23.386879    8611.6735   0.49374753 
 2099000    8.0180533   -38.652153    -38.66459  0.012436977   -38.755457   -19.219338    19.189234    19.189234    23.386879    8611.6735   0.49374753 
 2100000     6.742933   -38.652153   -38.662612   0.01045911   -39.219836   -105.61574    19.189234    19.189234    23.386879    8611.6735   0.49374753 
 2101000    7.4025357   -38.652153   -38.663635  0.011482234    -38.48442    31.206191    19.189234    19.189234    23.386879    8611.6735   0.49374753 
 2102000    7.9067959   -38.652153   -38.664418  0.012264403   -38.085567    105.41172    19.189234    19.189234    23.386879    8611.6735   0.49374753 
 2103000    8.0705354   -38.652153   -38.664671  0.012518383    -38.91034   -48.034897    19.189234    19.189234    23.386879    8611.6735   0.49374753 
 2104000    7.9110781   -38.652153   -38.664424  0.012271045    -39.16905   -96.167115    19.189234    19.189234    23.386879    8611.6735   0.49374753 
 2105000    7.2551036   -38.652153   -38.663407  0.011253549   -38.304853    64.614162    19.189234    19.189234    23.386879    8611.6735   0.49374753 
 2106000    7.7311147   -38.652153   -38.664145    0.0119919    -38.20668    82.878894    19.189234    19.189234    23.386879    8611.6735   0.49374753 
 2107000    5.1081389   -38.652153   -38.660076 0.0079233452    -39.03728   -71.651769    19.189234    19.189234    23.386879    8611.6735   0.49374753 
 2108000    9.1590763   -38.652153    -38.66636  0.014206842   -39.069891   -77.718907    19.189234    19.189234    23.386879    8611.6735   0.49374753 
 2109000     6.211294   -38.652153   -38.661788 0.0096344731   -38.124091    98.244431    19.189234    19.189234    23.386879    8611.6735   0.49374753 
 2110000    9.7602949   -38.652153   -38.667293  0.015139406   -38.336795    58.671454    19.189234    19.189234    23.386879    8611.6735   0.49374753 
 2111000    6.9306461   -38.652153   -38.662903  0.010750276   -39.223387   -106.27637    19.189234    19.189234    23.386879    8611.6735   0.49374753 
 2112000    8.2126454   -38.652153   -38.664892  0.012738813   -38.822043    -31.60741    19.189234    19.189234    23.386879    8611.6735   0.49374753 
 2113000    6.0583611   -38.652153    -38.66155 0.0093972556   -38.078349     106.7546    19.189234    19.189234    23.386879    8611.6735   0.49374753 
 2114000    7.0793646   -38.652153   -38.663134  0.010980956   -38.568883    15.492169    19.189234    19.189234    23.386879    8611.6735   0.49374753 
 2115000     5.498576   -38.652153   -38.660682 0.0085289607   -39.229521   -107.41767    19.189234    19.189234    23.386879    8611.6735   0.49374753 
 2116000    7.6312056   -38.652153    -38.66399  0.011836929    -38.71616   -11.908368    19.189234    19.189234    23.386879    8611.6735   0.49374753 
 2117000    6.7242618   -38.652153   -38.662583  0.010430149   -38.067325     108.8056    19.189234    19.189234    23.386879    8611.6735   0.49374753 
 2118000    7.9307405   -38.652153   -38.664455  0.012301544    -38.74622    -17.50094    19.189234    19.189234    23.386879    8611.6735   0.49374753 
 2119000    6.5258678   -38.652153   -38.662276  0.010122415   -39.224321   -106.45014    19.189234    19.189234    23.386879    8611.6735   0.49374753 
 2120000    8.1217117   -38.652153   -38.664751  0.012597764   -38.458999    35.935709    19.189234    19.189234    23.386879    8611.6735   0.49374753 
 2121000    7.6839386   -38.652153   -38.664072  0.011918724   -38.085599    105.40568    19.189234    19.189234    23.386879    8611.6735   0.49374753 
 2122000    7.6574923   -38.652153   -38.664031  0.011877703   -38.920422   -49.910645    19.189234    19.189234    23.386879    8611.6735   0.49374753 
 2123000    9.1537978   -38.652153   -38.666352  0.014198655   -39.166488   -95.690549    19.189234    19.189234    23.386879    8611.6735   0.49374753 
 2124000    5.8345893   -38.652153   -38.661203 0.0090501583   -38.267372    71.587416    19.189234    19.189234    23.386879    8611.6735   0.49374753 
 2125000    8.9451598   -38.652153   -38.666028  0.013875032   -38.237104    77.218707    19.189234    19.189234    23.386879    8611.6735   0.49374753 
 2126000    4.6228277   -38.652153   -38.659324 0.0071705685    -39.05675   -75.274084    19.189234    19.189234    23.386879    8611.6735   0.49374753 
 2127000     8.473027   -38.652153   -38.665296  0.013142696   -39.022855    -68.96803    19.189234    19.189234    23.386879    8611.6735   0.49374753 
 2128000    7.3574807   -38.652153   -38.663565  0.011412348   -38.165142    90.607013    19.189234    19.189234    23.386879    8611.6735   0.49374753 
 2129000    8.1687412   -38.652153   -38.664824  0.012670712    -38.32836    60.240798    19.189234    19.189234    23.386879    8611.6735   0.49374753 
 2130000    8.2292763   -38.652153   -38.664918  0.012764609   -39.217913   -105.25795    19.189234    19.189234    23.386879    8611.6735   0.49374753 
Loop time of 0.842912 on 4 procs for 50000 steps with 13 atoms

Performance: 2562.544 ns/day, 0.009 hours/ns, 59318.155 timesteps/s
81.9% CPU use with 4 MPI tasks x 1 OpenMP threads

MPI task timing breakdown:
Section |  min time  |  avg time  |  max time  |%varavg| %total
---------------------------------------------------------------
Pair    | 0.30778    | 0.34618    | 0.41651    |   7.1 | 41.07
Neigh   | 0          | 0          | 0          |   0.0 |  0.00
Comm    | 0.28102    | 0.35735    | 0.39085    |   7.4 | 42.40
Output  | 0.0033858  | 0.0035074  | 0.0038598  |   0.3 |  0.42
Modify  | 0.058169   | 0.063677   | 0.068369   |   1.4 |  7.55
Other   |            | 0.0722     |            |       |  8.57

Nlocal:    3.25 ave 8 max 1 min
Histogram: 1 2 0 0 0 0 0 0 0 1
Nghost:    14.75 ave 19 max 8 min
Histogram: 1 0 0 0 0 1 0 0 0 2
Neighs:    19.5 ave 60 max 1 min
Histogram: 2 0 1 0 0 0 0 0 0 1

Total # of neighbors = 78
Ave neighs/atom = 6
Neighbor list builds = 0
Dangerous builds = 0
unfix                  nve3
write_restart          restart.nve3

Total wall time: 0:00:42
