LAMMPS Structure File written by MatSQ2

13 atoms

1 atom types

0 25.6 xlo xhi
0 25.6 ylo yhi
0 31.2 zlo zhi
0 0 0 xy xz yz

Masses

1 196.9665

Atoms

1 1 10 10 10
2 1 10 10 15.6
3 1 10 10 18.4
4 1 10 12.8 10
5 1 10 12.8 12.8
6 1 10 12.8 18.4
7 1 12.8 10 10
8 1 12.8 10 12.8
9 1 12.8 10 15.6
10 1 12.8 10 18.4
11 1 12.8 12.8 10
12 1 12.8 12.8 12.8
13 1 12.8 12.8 18.4
