LAMMPS (5 May 2020)
OMP_NUM_THREADS environment is not set. Defaulting to 1 thread. (../comm.cpp:94)
  using 1 OpenMP thread(s) per MPI task
Reading data file ...
  triclinic box = (0 0 0) to (36.32 36.32 36.32) with tilt (0 0 0)
  2 by 2 by 2 MPI processor grid
  reading atoms ...
  256 atoms
  read_data CPU = 0.00116897 secs
WARNING: Using 'neigh_modify every 1 delay 0 check yes' setting during minimization (../min.cpp:190)
Neighbor list info ...
  update every 1 steps, delay 0 steps, check yes
  max neighbors/atom: 2000, page size: 100000
  master list distance cutoff = 7.5155
  ghost atom cutoff = 7.5155
  binsize = 3.75775, bins = 10 10 10
  1 neighbor lists, perpetual/occasional/extra = 1 0 0
  (1) pair eam/alloy, perpetual
      attributes: half, newton on
      pair build: half/bin/newton/tri
      stencil: half/bin/3d/newton/tri
      bin: standard
Setting up cg style minimization ...
  Unit style    : metal
  Current step  : 0
WARNING: Energy due to 1 extra global DOFs will be included in minimizer energies
Per MPI rank memory allocation (min/avg/max) = 4.438 | 4.438 | 4.438 Mbytes
Step Temp E_pair E_mol TotEng Press Volume 
       0            0   -885.92577            0   -885.92577   -8927.7441    47911.252 
     174            0   -903.55548            0   -903.55548 9.6675497e-05    44703.804 
Loop time of 0.0275816 on 8 procs for 174 steps with 256 atoms

97.2% CPU use with 8 MPI tasks x 1 OpenMP threads

Minimization stats:
  Stopping criterion = energy tolerance
  Energy initial, next-to-last, final = 
        -885.925767634     -903.555476431     -903.555476431
  Force two-norm initial, final = 801.035 2.30677e-05
  Force max component initial, final = 800.922 8.28138e-06
  Final line search alpha, max atom move = 1 8.28138e-06
  Iterations, force evaluations = 174 317

MPI task timing breakdown:
Section |  min time  |  avg time  |  max time  |%varavg| %total
---------------------------------------------------------------
Pair    | 0.014143   | 0.015449   | 0.016654   |   1.0 | 56.01
Neigh   | 3.4809e-05 | 4.6641e-05 | 6.4135e-05 |   0.0 |  0.17
Comm    | 0.0050843  | 0.0066334  | 0.0081306  |   1.6 | 24.05
Output  | 0          | 0          | 0          |   0.0 |  0.00
Modify  | 0          | 0          | 0          |   0.0 |  0.00
Other   |            | 0.005453   |            |       | 19.77

Nlocal:    32 ave 32 max 32 min
Histogram: 8 0 0 0 0 0 0 0 0 0
Nghost:    178.875 ave 224 max 139 min
Histogram: 1 0 3 0 0 0 3 0 0 1
Neighs:    1126.5 ave 1410 max 843 min
Histogram: 4 0 0 0 0 0 0 0 0 4

Total # of neighbors = 9012
Ave neighs/atom = 35.2031
Neighbor list builds = 1
Dangerous builds = 0
Setting up Verlet run ...
  Unit style    : metal
  Current step  : 0
  Time step     : 0.0005
Per MPI rank memory allocation (min/avg/max) = 3.313 | 3.313 | 3.313 Mbytes
Step Temp TotEng PotEng KinEng Enthalpy Press Lx Ly Lz Volume Density 
       0            0   -903.55548   -903.55548            0   -903.55547 9.6675514e-05    35.490721    35.490721    35.490721    44703.804    1.8730295 
    1000 5.6943713e-10   -903.55548   -903.55548 1.8769409e-11   -903.55548 -9.5751963e-05    35.490721    35.490721    35.490721    44703.804    1.8730295 
    2000 6.3086807e-10   -903.55548   -903.55548 2.0794255e-11   -903.55564 -0.0060253994    35.490721    35.490721    35.490721    44703.804    1.8730295 
    3000 5.6873574e-10   -903.55548   -903.55548 1.874629e-11   -903.55576 -0.010042884    35.490721    35.490721    35.490721    44703.804    1.8730295 
    4000 7.6298477e-10   -903.55548   -903.55548 2.5148998e-11   -903.55538 0.0032918522    35.490721    35.490721    35.490721    44703.804    1.8730295 
    5000 6.4570497e-10   -903.55548   -903.55548 2.1283299e-11   -903.55543 0.0016131706    35.490721    35.490721    35.490721    44703.804    1.8730295 
    6000 8.2185496e-10   -903.55548   -903.55548 2.7089438e-11   -903.55531 0.0057931264    35.490721    35.490721    35.490721    44703.804    1.8730295 
    7000 8.3712466e-10   -903.55548   -903.55548 2.7592748e-11   -903.55564 -0.0057406514    35.490721    35.490721    35.490721    44703.804    1.8730295 
    8000 7.8506917e-10   -903.55548   -903.55548 2.587693e-11   -903.55562 -0.0050334137    35.490721    35.490721    35.490721    44703.804    1.8730295 
    9000 7.8378354e-10   -903.55548   -903.55548 2.5834554e-11   -903.55535 0.0047082761    35.490721    35.490721    35.490721    44703.804    1.8730295 
   10000 5.9243565e-10   -903.55548   -903.55548 1.9527471e-11   -903.55536 0.0042715065    35.490721    35.490721    35.490721    44703.804    1.8730295 
   11000 3.8043777e-10   -903.55548   -903.55548 1.2539738e-11    -903.5552 0.0097939024    35.490721    35.490721    35.490721    44703.804    1.8730295 
   12000 5.0365218e-10   -903.55548   -903.55548 1.6601049e-11    -903.5555 -0.0008541173    35.490721    35.490721    35.490721    44703.804    1.8730295 
   13000 6.7322128e-10   -903.55548   -903.55548 2.2190274e-11   -903.55546 0.00061053705    35.490721    35.490721    35.490721    44703.804    1.8730295 
   14000 4.9098219e-10   -903.55548   -903.55548 1.6183429e-11   -903.55542 0.0019091613    35.490721    35.490721    35.490721    44703.804    1.8730295 
   15000 4.4500094e-10   -903.55548   -903.55548 1.4667826e-11   -903.55539 0.0030443626    35.490721    35.490721    35.490721    44703.804    1.8730295 
   16000 6.2190886e-10   -903.55548   -903.55548 2.0498948e-11   -903.55524 0.0083126863    35.490721    35.490721    35.490721    44703.804    1.8730295 
   17000 6.653699e-10   -903.55548   -903.55548 2.1931482e-11   -903.55555 -0.0027466492    35.490721    35.490721    35.490721    44703.804    1.8730295 
   18000 8.8917367e-10   -903.55548   -903.55548 2.9308353e-11    -903.5555 -0.00089507268    35.490721    35.490721    35.490721    44703.804    1.8730295 
   19000 8.8723927e-10   -903.55548   -903.55548 2.9244592e-11   -903.55547 0.00026037379    35.490721    35.490721    35.490721    44703.804    1.8730295 
   20000 6.3436283e-10   -903.55548   -903.55548 2.0909447e-11   -903.55547 0.00019191663    35.490721    35.490721    35.490721    44703.804    1.8730295 
   21000 7.5366632e-10   -903.55548   -903.55548 2.4841849e-11   -903.55543 0.0016355542    35.490721    35.490721    35.490721    44703.804    1.8730295 
   22000 5.9960905e-10   -903.55548   -903.55548 1.9763916e-11   -903.55563 -0.0056633502    35.490721    35.490721    35.490721    44703.804    1.8730295 
   23000 5.1954805e-10   -903.55548   -903.55548 1.7124998e-11   -903.55562 -0.0053004318    35.490721    35.490721    35.490721    44703.804    1.8730295 
   24000 7.9448782e-10   -903.55548   -903.55548 2.6187381e-11   -903.55545 0.0008628263    35.490721    35.490721    35.490721    44703.804    1.8730295 
   25000 4.5315746e-10   -903.55548   -903.55548 1.4936676e-11   -903.55561 -0.0049146694    35.490721    35.490721    35.490721    44703.804    1.8730295 
   26000 4.3614043e-10   -903.55548   -903.55548 1.4375772e-11   -903.55543 0.0016246007    35.490721    35.490721    35.490721    44703.804    1.8730295 
   27000 5.8878239e-10   -903.55548   -903.55548 1.9407055e-11   -903.55572 -0.0087022443    35.490721    35.490721    35.490721    44703.804    1.8730295 
   28000 5.658415e-10   -903.55548   -903.55548 1.8650892e-11   -903.55555 -0.0027205733    35.490721    35.490721    35.490721    44703.804    1.8730295 
   29000 9.5448773e-10   -903.55548   -903.55548 3.1461192e-11   -903.55549 -0.00033532584    35.490721    35.490721    35.490721    44703.804    1.8730295 
   30000 6.9020565e-10   -903.55548   -903.55548 2.2750101e-11   -903.55548 -0.00011789605    35.490721    35.490721    35.490721    44703.804    1.8730295 
   31000 6.4466356e-10   -903.55548   -903.55548 2.1248973e-11   -903.55542 0.0020126566    35.490721    35.490721    35.490721    44703.804    1.8730295 
   32000 8.5947163e-10   -903.55548   -903.55548 2.8329334e-11   -903.55567 -0.0070248927    35.490721    35.490721    35.490721    44703.804    1.8730295 
   33000 7.9073058e-10   -903.55548   -903.55548 2.6063537e-11   -903.55542 0.0019759168    35.490721    35.490721    35.490721    44703.804    1.8730295 
   34000 7.691767e-10   -903.55548   -903.55548 2.5353092e-11    -903.5554 0.0027331807    35.490721    35.490721    35.490721    44703.804    1.8730295 
   35000 7.1185263e-10   -903.55548   -903.55548 2.3463614e-11   -903.55528 0.0068618021    35.490721    35.490721    35.490721    44703.804    1.8730295 
   36000 6.4833039e-10   -903.55548   -903.55548 2.1369837e-11   -903.55533 0.0053978887    35.490721    35.490721    35.490721    44703.804    1.8730295 
   37000 3.5721485e-10   -903.55548   -903.55548 1.1774279e-11   -903.55557 -0.0032752941    35.490721    35.490721    35.490721    44703.804    1.8730295 
   38000 5.2160632e-10   -903.55548   -903.55548 1.7192842e-11   -903.55545 0.00085336282    35.490721    35.490721    35.490721    44703.804    1.8730295 
   39000 6.990308e-10   -903.55548   -903.55548 2.304099e-11   -903.55535 0.0047007993    35.490721    35.490721    35.490721    44703.804    1.8730295 
   40000 6.1451445e-10   -903.55548   -903.55548 2.0255218e-11   -903.55528  0.007083446    35.490721    35.490721    35.490721    44703.804    1.8730295 
   41000 6.8317011e-10   -903.55548   -903.55548  2.25182e-11   -903.55526 0.0078190758    35.490721    35.490721    35.490721    44703.804    1.8730295 
   42000 4.674584e-10   -903.55548   -903.55548 1.5408054e-11   -903.55564 -0.0058997065    35.490721    35.490721    35.490721    44703.804    1.8730295 
   43000 7.5232022e-10   -903.55548   -903.55548 2.479748e-11    -903.5555 -0.001007846    35.490721    35.490721    35.490721    44703.804    1.8730295 
   44000 9.4551132e-10   -903.55548   -903.55548 3.1165317e-11   -903.55543 0.0015807116    35.490721    35.490721    35.490721    44703.804    1.8730295 
   45000 6.3751308e-10   -903.55548   -903.55548 2.1013283e-11    -903.5554 0.0027546396    35.490721    35.490721    35.490721    44703.804    1.8730295 
   46000 7.9397489e-10   -903.55548   -903.55548 2.6170474e-11   -903.55534  0.004995202    35.490721    35.490721    35.490721    44703.804    1.8730295 
   47000 7.360409e-10   -903.55548   -903.55548 2.4260892e-11   -903.55572 -0.0088491268    35.490721    35.490721    35.490721    44703.804    1.8730295 
   48000 4.6729593e-10   -903.55548   -903.55548 1.5402699e-11   -903.55559 -0.0042433242    35.490721    35.490721    35.490721    44703.804    1.8730295 
   49000 7.2663457e-10   -903.55548   -903.55548 2.3950847e-11   -903.55562 -0.0052631357    35.490721    35.490721    35.490721    44703.804    1.8730295 
   50000 7.040577e-10   -903.55548   -903.55548 2.3206683e-11    -903.5554 0.0029145048    35.490721    35.490721    35.490721    44703.804    1.8730295 
Loop time of 3.35687 on 8 procs for 50000 steps with 256 atoms

Performance: 643.457 ns/day, 0.037 hours/ns, 14894.839 timesteps/s
88.5% CPU use with 8 MPI tasks x 1 OpenMP threads

MPI task timing breakdown:
Section |  min time  |  avg time  |  max time  |%varavg| %total
---------------------------------------------------------------
Pair    | 1.7837     | 2.0583     | 2.3487     |  16.4 | 61.31
Neigh   | 0          | 0          | 0          |   0.0 |  0.00
Comm    | 0.78781    | 1.087      | 1.3565     |  22.5 | 32.38
Output  | 0.0010188  | 0.0011044  | 0.0016265  |   0.6 |  0.03
Modify  | 0.075294   | 0.090471   | 0.096047   |   2.2 |  2.70
Other   |            | 0.12       |            |       |  3.58

Nlocal:    32 ave 38 max 26 min
Histogram: 4 0 0 0 0 0 0 0 0 4
Nghost:    178.875 ave 218 max 145 min
Histogram: 1 0 0 3 0 3 0 0 0 1
Neighs:    970.5 ave 1414 max 566 min
Histogram: 3 0 0 1 1 0 0 0 0 3

Total # of neighbors = 7764
Ave neighs/atom = 30.3281
Neighbor list builds = 0
Dangerous builds = 0
System init for write_restart ...
Neighbor list info ...
  update every 10 steps, delay 0 steps, check yes
  max neighbors/atom: 2000, page size: 100000
  master list distance cutoff = 7.5155
  ghost atom cutoff = 7.5155
  binsize = 3.75775, bins = 10 10 10
  2 neighbor lists, perpetual/occasional/extra = 1 1 0
  (1) pair eam/alloy, perpetual
      attributes: half, newton on
      pair build: half/bin/newton/tri
      stencil: half/bin/3d/newton/tri
      bin: standard
  (2) compute rdf, occasional, copy from (1)
      attributes: half, newton on
      pair build: copy
      stencil: none
      bin: none
Setting up Verlet run ...
  Unit style    : metal
  Current step  : 0
  Time step     : 0.0005
Per MPI rank memory allocation (min/avg/max) = 4.946 | 4.946 | 4.946 Mbytes
Step Temp TotEng PotEng KinEng Enthalpy Press Volume Lx Ly Lz Density 
       0          300   -893.66708   -903.55548    9.8884011   -887.07473    236.26862    44703.804    35.490721    35.490721    35.490721    1.8730295 
    1000    287.78459     -883.734   -893.21977    9.4857647   -894.72368   -393.86825    44703.804    35.490721    35.490721    35.490721    1.8730295 
    2000    281.99582    -884.5529   -893.84786    9.2949592   -880.01069    162.79225    44703.804    35.490721    35.490721    35.490721    1.8730295 
    3000    294.88926   -884.31404   -894.03399    9.7199443   -895.40075   -397.34578    44703.804    35.490721    35.490721    35.490721    1.8730295 
    4000    309.35264   -883.83519   -894.03187    10.196677   -879.59704    151.89463    44703.804    35.490721    35.490721    35.490721    1.8730295 
    5000     301.9971   -882.84528   -892.79951     9.954228   -873.61996    330.63396    44703.804    35.490721    35.490721    35.490721    1.8730295 
    6000    311.19351   -883.04824   -893.30559    10.257354   -895.51739   -446.89232    44703.804    35.490721    35.490721    35.490721    1.8730295 
    7000    297.91447    -884.6926   -894.51226    9.8196593   -893.20736   -305.16736    44703.804    35.490721    35.490721    35.490721    1.8730295 
    8000    288.37574    -883.6927   -893.19795    9.5052499   -909.65912   -930.63195    44703.804    35.490721    35.490721    35.490721    1.8730295 
    9000    275.67895    -885.5478   -894.63455    9.0867467   -866.28154    690.49931    44703.804    35.490721    35.490721    35.490721    1.8730295 
   10000     281.1716   -883.64316   -892.91095    9.2677919   -896.33602   -454.91017    44703.804    35.490721    35.490721    35.490721    1.8730295 
   11000    328.25374   -883.34387   -894.16356    10.819682   -862.27993    754.92808    44703.804    35.490721    35.490721    35.490721    1.8730295 
   12000    321.76632   -882.82032   -893.42617    10.605848    -892.8164   -358.25758    44703.804    35.490721    35.490721    35.490721    1.8730295 
   13000    332.46684   -883.19533   -894.15388    10.958551   -881.66898    54.704089    44703.804    35.490721    35.490721    35.490721    1.8730295 
   14000    273.81042   -884.64222   -893.66738    9.0251575   -881.42721    115.22554    44703.804    35.490721    35.490721    35.490721    1.8730295 
   15000    274.33081   -884.95566   -893.99797    9.0423101    -895.1782   -366.37399    44703.804    35.490721    35.490721    35.490721    1.8730295 
   16000     315.9651   -883.72546   -894.14009    10.414632   -874.50498    330.46044    44703.804    35.490721    35.490721    35.490721    1.8730295 
   17000    291.12887   -884.69931   -894.29531    9.5959968   -906.29617   -774.02757    44703.804    35.490721    35.490721    35.490721    1.8730295 
   18000    296.29591     -884.172   -893.93831    9.7663094   -871.72165    446.21823    44703.804    35.490721    35.490721    35.490721    1.8730295 
   19000    296.02939   -883.14335   -892.90087    9.7575245   -895.15091   -430.34873    44703.804    35.490721    35.490721    35.490721    1.8730295 
   20000    292.64164   -883.79915   -893.44501    9.6458598   -879.36638    158.86965    44703.804    35.490721    35.490721    35.490721    1.8730295 
   21000    284.21964    -884.3923   -893.76056    9.3682592    -907.3129   -821.47028    44703.804    35.490721    35.490721    35.490721    1.8730295 
   22000    289.97337   -884.45312   -894.01103      9.55791    -896.1139   -417.92029    44703.804    35.490721    35.490721    35.490721    1.8730295 
   23000    301.21481   -883.46998   -893.39842    9.9284429   -871.31022    435.80349    44703.804    35.490721    35.490721    35.490721    1.8730295 
   24000    288.68785   -883.11908   -892.63461    9.5155374   -885.73636   -93.802885    44703.804    35.490721    35.490721    35.490721    1.8730295 
   25000    318.38886   -882.60595   -893.10047    10.494522   -868.77603    495.66191    44703.804    35.490721    35.490721    35.490721    1.8730295 
   26000    295.25569   -883.47749   -893.20951    9.7320224   -903.80258   -728.44746    44703.804    35.490721    35.490721    35.490721    1.8730295 
   27000    313.01735   -883.63647   -893.95394     10.31747   -888.21277     -164.014    44703.804    35.490721    35.490721    35.490721    1.8730295 
   28000    294.00437   -884.86065   -894.55143    9.6907771   -879.67794    185.74737    44703.804    35.490721    35.490721    35.490721    1.8730295 
   29000    305.95012   -884.06579   -894.15032    10.084525   -859.39412    884.22844    44703.804    35.490721    35.490721    35.490721    1.8730295 
   30000    289.54423   -887.07184    -896.6156    9.5437648   -862.99236    863.00431    44703.804    35.490721    35.490721    35.490721    1.8730295 
   31000    303.92655   -884.33421   -894.35204    10.017825   -879.31863    179.75778    44703.804    35.490721    35.490721    35.490721    1.8730295 
   32000    298.49811   -885.18614   -895.02503    9.8388969   -886.19759   -36.250408    44703.804    35.490721    35.490721    35.490721    1.8730295 
   33000    277.77911   -884.99347   -894.14944    9.1559709   -893.46342    -303.5615    44703.804    35.490721    35.490721    35.490721    1.8730295 
   34000    332.43024   -883.77729   -894.73463    10.957345   -883.41581    12.955454    44703.804    35.490721    35.490721    35.490721    1.8730295 
   35000    330.38033   -883.42801   -894.31779    10.889777   -868.36239    539.94936    44703.804    35.490721    35.490721    35.490721    1.8730295 
   36000    286.73569   -883.98295   -893.43414    9.4511917    -879.0807    175.69582    44703.804    35.490721    35.490721    35.490721    1.8730295 
   37000    284.59539   -885.33213   -894.71278    9.3806445   -887.91164   -92.449056    44703.804    35.490721    35.490721    35.490721    1.8730295 
   38000    295.03771     -884.745   -894.46983    9.7248374    -908.5993   -854.93405    44703.804    35.490721    35.490721    35.490721    1.8730295 
   39000    296.33607   -885.86614   -895.63377    9.7676331   -884.51398    48.461169    44703.804    35.490721    35.490721    35.490721    1.8730295 
   40000    316.66495   -884.07875   -894.51645      10.4377   -881.59528    89.006933    44703.804    35.490721    35.490721    35.490721    1.8730295 
   41000    277.24164   -886.02495   -895.16321    9.1382552    -886.3713   -12.412841    44703.804    35.490721    35.490721    35.490721    1.8730295 
   42000    284.34286   -885.30204   -894.67436    9.3723207   -878.93677    228.13018    44703.804    35.490721    35.490721    35.490721    1.8730295 
   43000    276.64355   -885.53982   -894.65836    9.1185413   -888.61305   -110.14385    44703.804    35.490721    35.490721    35.490721    1.8730295 
   44000    322.39903   -884.37578   -895.00249    10.626703   -893.54994   -328.80023    44703.804    35.490721    35.490721    35.490721    1.8730295 
   45000    267.55601   -885.98829    -894.8073    8.8190037   -888.28968    -82.48131    44703.804    35.490721    35.490721    35.490721    1.8730295 
   46000    306.81935   -884.88553   -894.99871    10.113176   -882.20447    96.088689    44703.804    35.490721    35.490721    35.490721    1.8730295 
   47000    290.31449   -884.93976   -894.50892    9.5691537   -876.96942    285.65567    44703.804    35.490721    35.490721    35.490721    1.8730295 
   48000    324.78684   -884.03321   -894.73861    10.705408   -888.08824   -145.33158    44703.804    35.490721    35.490721    35.490721    1.8730295 
   49000    313.20846   -884.48049   -894.80426     10.32377   -889.29912   -172.69885    44703.804    35.490721    35.490721    35.490721    1.8730295 
   50000    309.44676   -883.41915   -893.61893    10.199779   -882.62209    28.566766    44703.804    35.490721    35.490721    35.490721    1.8730295 
Loop time of 4.14423 on 8 procs for 50000 steps with 256 atoms

Performance: 521.206 ns/day, 0.046 hours/ns, 12064.954 timesteps/s
89.2% CPU use with 8 MPI tasks x 1 OpenMP threads

MPI task timing breakdown:
Section |  min time  |  avg time  |  max time  |%varavg| %total
---------------------------------------------------------------
Pair    | 1.9967     | 2.4063     | 3.0485     |  21.3 | 58.06
Neigh   | 0.0011356  | 0.0022999  | 0.0039661  |   1.8 |  0.06
Comm    | 0.72337    | 1.3673     | 1.767      |  27.6 | 32.99
Output  | 0.0064497  | 0.0064923  | 0.0067415  |   0.1 |  0.16
Modify  | 0.21634    | 0.25059    | 0.28637    |   4.9 |  6.05
Other   |            | 0.1113     |            |       |  2.69

Nlocal:    32 ave 47 max 17 min
Histogram: 1 0 0 3 0 1 1 1 0 1
Nghost:    187.75 ave 191 max 185 min
Histogram: 1 2 0 1 0 1 1 0 1 1
Neighs:    959 ave 1736 max 382 min
Histogram: 2 1 0 2 0 0 1 1 0 1

Total # of neighbors = 7672
Ave neighs/atom = 29.9688
Neighbor list builds = 42
Dangerous builds = 0
System init for write_restart ...
Setting up Verlet run ...
  Unit style    : metal
  Current step  : 50000
  Time step     : 0.0005
Per MPI rank memory allocation (min/avg/max) = 4.946 | 4.947 | 4.947 Mbytes
Step Temp TotEng PotEng KinEng Enthalpy Press Lx Ly Lz Volume Density 
   50000    309.44676   -883.41915   -893.61893    10.199779   -882.62209    28.566766    35.490721    35.490721    35.490721    44703.804    1.8730295 
   51000    301.59922   -883.41915   -893.36027    9.9411134   -881.42117    71.607516    35.490721    35.490721    35.490721    44703.804    1.8730295 
   52000    327.94061   -883.41916   -894.22852    10.809361   -888.18084    -170.6578    35.490721    35.490721    35.490721    44703.804    1.8730295 
   53000    302.53741   -883.41915   -893.39119    9.9720375   -905.39343   -787.55426    35.490721    35.490721    35.490721    44703.804    1.8730295 
   54000    317.96539   -883.41915   -893.89972    10.480564   -877.40029    215.71506    35.490721    35.490721    35.490721    44703.804    1.8730295 
   55000    316.34745   -883.41916   -893.84639    10.427235   -878.91418    161.45749    35.490721    35.490721    35.490721    44703.804    1.8730295 
   56000    320.14889   -883.41916    -893.9717    10.552535   -867.32533    576.80014    35.490721    35.490721    35.490721    44703.804    1.8730295 
   57000     325.7882   -883.41917   -894.15758    10.738415   -885.64561   -79.795193    35.490721    35.490721    35.490721    44703.804    1.8730295 
   58000    332.50361   -883.41918   -894.37895    10.959764   -885.91205   -89.343865    35.490721    35.490721    35.490721    44703.804    1.8730295 
   59000      315.107   -883.41914   -893.80549    10.386348    -877.3214    218.54221    35.490721    35.490721    35.490721    44703.804    1.8730295 
   60000     315.8402   -883.41915   -893.82967    10.410515   -880.33298    110.60789    35.490721    35.490721    35.490721    44703.804    1.8730295 
   61000    317.53668   -883.41917    -893.8856    10.466433   -866.57914    603.54377    35.490721    35.490721    35.490721    44703.804    1.8730295 
   62000    306.28791   -883.41915   -893.51481    10.095659    -891.9696   -306.44668    35.490721    35.490721    35.490721    44703.804    1.8730295 
   63000    320.10403   -883.41916   -893.97022    10.551057   -870.16279    475.10614    35.490721    35.490721    35.490721    44703.804    1.8730295 
   64000    331.34792   -883.41917   -894.34084     10.92167   -869.27571    506.89911    35.490721    35.490721    35.490721    44703.804    1.8730295 
   65000    321.29887   -883.41917   -894.00961     10.59044   -864.47583    678.92612    35.490721    35.490721    35.490721    44703.804    1.8730295 
   66000    335.49757   -883.41918   -894.47763    11.058448   -882.73165    24.640697    35.490721    35.490721    35.490721    44703.804    1.8730295 
   67000    314.84137   -883.41916   -893.79675    10.377593   -904.93349   -771.06993    35.490721    35.490721    35.490721    44703.804    1.8730295 
   68000    305.18378   -883.41915   -893.47841    10.059265   -888.34772   -176.63935    35.490721    35.490721    35.490721    44703.804    1.8730295 
   69000     326.2214   -883.41917   -894.17186    10.752693   -877.49789    212.21743    35.490721    35.490721    35.490721    44703.804    1.8730295 
   70000    310.58682   -883.41915   -893.65651    10.237357   -877.23054    221.79891    35.490721    35.490721    35.490721    44703.804    1.8730295 
   71000    316.70193   -883.41917   -893.85808    10.438919   -889.57761   -220.71756    35.490721    35.490721    35.490721    44703.804    1.8730295 
   72000    302.35082   -883.41914   -893.38503    9.9658873   -882.81873    21.518677    35.490721    35.490721    35.490721    44703.804    1.8730295 
   73000     305.2616   -883.41916   -893.48099    10.061831   -862.57274    747.13197    35.490721    35.490721    35.490721    44703.804    1.8730295 
   74000     314.6877   -883.41916   -893.79169    10.372527   -880.72867    96.426883    35.490721    35.490721    35.490721    44703.804    1.8730295 
   75000    320.35878   -883.41916   -893.97862    10.559454    -882.2372    42.361281    35.490721    35.490721    35.490721    44703.804    1.8730295 
   76000    310.29186   -883.41915   -893.64679    10.227635   -894.72821   -405.31443    35.490721    35.490721    35.490721    44703.804    1.8730295 
   77000    323.47392   -883.41916    -894.0813    10.662133   -887.88934   -160.21028    35.490721    35.490721    35.490721    44703.804    1.8730295 
   78000    331.64476   -883.41915   -894.35061    10.931455   -866.53382     605.1674    35.490721    35.490721    35.490721    44703.804    1.8730295 
   79000    323.29011   -883.41916   -894.07524    10.656074    -859.7236    849.24469    35.490721    35.490721    35.490721    44703.804    1.8730295 
   80000    341.83894   -883.41917   -894.68664    11.267468   -885.50478    -74.74777    35.490721    35.490721    35.490721    44703.804    1.8730295 
   81000    327.16295   -883.41915   -894.20288    10.783728   -898.79604   -551.10494    35.490721    35.490721    35.490721    44703.804    1.8730295 
   82000    324.44299   -883.41917   -894.11324    10.694075   -904.79809   -766.21679    35.490721    35.490721    35.490721    44703.804    1.8730295 
   83000    326.66056   -883.41916   -894.18633    10.767169   -877.55209    210.27475    35.490721    35.490721    35.490721    44703.804    1.8730295 
   84000    342.43368   -883.41917   -894.70624    11.287072   -883.48641   -2.4098462    35.490721    35.490721    35.490721    44703.804    1.8730295 
   85000    332.53396   -883.41917   -894.37993    10.960764   -870.18099    474.45399    35.490721    35.490721    35.490721    44703.804    1.8730295 
   86000    314.47315   -883.41915   -893.78461    10.365455    -899.4734   -575.38158    35.490721    35.490721    35.490721    44703.804    1.8730295 
   87000    336.95517   -883.41916   -894.52566    11.106493   -892.35459   -320.24421    35.490721    35.490721    35.490721    44703.804    1.8730295 
   88000    325.49187   -883.41916   -894.14781    10.728647   -880.59458    101.23229    35.490721    35.490721    35.490721    44703.804    1.8730295 
   89000    332.07999   -883.41917   -894.36497      10.9458   -859.70121    850.04758    35.490721    35.490721    35.490721    44703.804    1.8730295 
   90000    349.59229   -883.41917    -894.9422    11.523029    -859.1979    868.08613    35.490721    35.490721    35.490721    44703.804    1.8730295 
   91000    338.57194   -883.41917   -894.57896    11.159784   -889.14473   -205.20313    35.490721    35.490721    35.490721    44703.804    1.8730295 
   92000     339.1577   -883.41916   -894.59825    11.179091   -869.70894    491.37177    35.490721    35.490721    35.490721    44703.804    1.8730295 
   93000    322.70269   -883.41916   -894.05587    10.636712   -875.58083     280.9244    35.490721    35.490721    35.490721    44703.804    1.8730295 
   94000    356.11843   -883.41918   -895.15732    11.738139   -871.18516    438.46501    35.490721    35.490721    35.490721    44703.804    1.8730295 
   95000    340.28501   -883.41917   -894.63542    11.216249   -890.85677   -266.56218    35.490721    35.490721    35.490721    44703.804    1.8730295 
   96000    343.68508   -883.41917   -894.74749     11.32832   -889.63305   -222.70436    35.490721    35.490721    35.490721    44703.804    1.8730295 
   97000    328.27578   -883.41916   -894.23957    10.820409   -888.36369   -177.21126    35.490721    35.490721    35.490721    44703.804    1.8730295 
   98000    352.98314   -883.41917   -895.05396    11.634796    -871.0079    444.81773    35.490721    35.490721    35.490721    44703.804    1.8730295 
   99000    353.87152   -883.41917   -895.08325    11.664078   -875.00238    301.65653    35.490721    35.490721    35.490721    44703.804    1.8730295 
  100000    321.72869   -883.41915   -894.02376    10.604608   -893.05934   -345.50274    35.490721    35.490721    35.490721    44703.804    1.8730295 
Loop time of 4.18448 on 8 procs for 50000 steps with 256 atoms

Performance: 516.193 ns/day, 0.046 hours/ns, 11948.913 timesteps/s
88.4% CPU use with 8 MPI tasks x 1 OpenMP threads

MPI task timing breakdown:
Section |  min time  |  avg time  |  max time  |%varavg| %total
---------------------------------------------------------------
Pair    | 2.0589     | 2.4912     | 3.2105     |  22.3 | 59.53
Neigh   | 0.0011644  | 0.0023793  | 0.0041783  |   1.9 |  0.06
Comm    | 0.73818    | 1.4568     | 1.8932     |  29.5 | 34.82
Output  | 0.0065324  | 0.0065817  | 0.0068545  |   0.1 |  0.16
Modify  | 0.10069    | 0.11036    | 0.12182    |   2.0 |  2.64
Other   |            | 0.1171     |            |       |  2.80

Nlocal:    32 ave 47 max 21 min
Histogram: 1 2 0 1 0 2 1 0 0 1
Nghost:    187.25 ave 202 max 169 min
Histogram: 1 0 0 1 2 0 1 2 0 1
Neighs:    965.75 ave 1820 max 385 min
Histogram: 1 2 1 0 1 0 2 0 0 1

Total # of neighbors = 7726
Ave neighs/atom = 30.1797
Neighbor list builds = 43
Dangerous builds = 0
System init for write_restart ...
Setting up Verlet run ...
  Unit style    : metal
  Current step  : 100000
  Time step     : 0.0005
Per MPI rank memory allocation (min/avg/max) = 4.946 | 4.947 | 4.947 Mbytes
Step Temp TotEng PotEng KinEng Enthalpy Press Volume Lx Ly Lz Density 
  100000    321.72869   -883.41915   -894.02376    10.604608   -893.05934   -345.50274    44703.804    35.490721    35.490721    35.490721    1.8730295 
  101000    307.34933   -885.82422   -895.95487    10.130645   -890.14946   -155.01577    44703.804    35.490721    35.490721    35.490721    1.8730295 
  102000    300.65433   -885.75852   -895.66849    9.9099688     -891.445   -203.80263    44703.804    35.490721    35.490721    35.490721    1.8730295 
  103000    285.35154    -887.3034   -896.70897    9.4055683   -884.24315    109.67888    44703.804    35.490721    35.490721    35.490721    1.8730295 
  104000     313.1766   -883.88021   -894.20293    10.322719   -879.65452    151.44794    44703.804    35.490721    35.490721    35.490721    1.8730295 
  105000      319.202   -883.87519   -894.39652    10.521325   -890.93569   -253.04709    44703.804    35.490721    35.490721    35.490721    1.8730295 
  106000    336.52186   -884.18882   -895.28103     11.09221    -885.3689   -42.293604    44703.804    35.490721    35.490721    35.490721    1.8730295 
  107000    356.32106   -883.23095   -894.97577    11.744818   -895.84549   -452.10267    44703.804    35.490721    35.490721    35.490721    1.8730295 
  108000    365.57586   -883.51881   -895.56868    12.049869   -879.33724    149.86677    44703.804    35.490721    35.490721    35.490721    1.8730295 
  109000    340.66876   -882.65069   -893.87959    11.228898   -879.90189    98.516758    44703.804    35.490721    35.490721    35.490721    1.8730295 
  110000    338.36258    -884.3265   -895.47939    11.152883   -869.29446    538.74571    44703.804    35.490721    35.490721    35.490721    1.8730295 
  111000    342.66901   -882.75105   -894.04588    11.294829   -882.98323   -8.3212953    44703.804    35.490721    35.490721    35.490721    1.8730295 
  112000    379.18994   -882.04481   -894.54342    12.498608   -872.02034    359.27519    44703.804    35.490721    35.490721    35.490721    1.8730295 
  113000    371.75801   -882.48199   -894.73563    12.253641   -882.86526   -13.736362    44703.804    35.490721    35.490721    35.490721    1.8730295 
  114000    383.71843   -881.00582    -893.6537    12.647872   -875.59057    194.08163    44703.804    35.490721    35.490721    35.490721    1.8730295 
  115000    382.22215   -881.42247   -894.02103    12.598553   -869.25081    436.23021    44703.804    35.490721    35.490721    35.490721    1.8730295 
  116000    360.65654   -882.87001   -894.75773    11.887722   -882.32509    19.529573    44703.804    35.490721    35.490721    35.490721    1.8730295 
  117000    385.15179   -881.41425   -894.10937    12.695118   -871.71899    347.47641    44703.804    35.490721    35.490721    35.490721    1.8730295 
  118000    358.35034   -881.50636   -893.31806    11.811706   -873.17964    298.42813    44703.804    35.490721    35.490721    35.490721    1.8730295 
  119000     392.2284   -879.78629   -892.71466    12.928373   -870.90117    318.44131    44703.804    35.490721    35.490721    35.490721    1.8730295 
  120000    380.47832    -881.2835   -893.82457    12.541074   -868.90941    443.48518    44703.804    35.490721    35.490721    35.490721    1.8730295 
  121000    409.40979   -880.73923   -894.23392    13.494694   -881.92196   -42.388727    44703.804    35.490721    35.490721    35.490721    1.8730295 
  122000    416.75714   -878.19034   -891.92722    13.736873   -891.93413   -492.57475    44703.804    35.490721    35.490721    35.490721    1.8730295 
  123000     435.4509   -878.01618   -892.36923    14.353044   -865.79318    438.07023    44703.804    35.490721    35.490721    35.490721    1.8730295 
  124000    461.88335   -876.22718   -891.45147    15.224293    -871.6923    162.52924    44703.804    35.490721    35.490721    35.490721    1.8730295 
  125000    422.68388   -877.87292   -891.80514    13.932226   -855.11219    815.74042    44703.804    35.490721    35.490721    35.490721    1.8730295 
  126000    455.92132   -876.26059   -891.28837    15.027776   -886.87359   -380.36792    44703.804    35.490721    35.490721    35.490721    1.8730295 
  127000    398.07002   -878.80123   -891.92215     13.12092   -885.01209   -222.59608    44703.804    35.490721    35.490721    35.490721    1.8730295 
  128000     451.9668   -876.84807    -891.7455     14.89743   -863.16697    490.32806    44703.804    35.490721    35.490721    35.490721    1.8730295 
  129000     449.4003   -876.11383   -890.92666    14.812835   -872.10388    143.71583    44703.804    35.490721    35.490721    35.490721    1.8730295 
  130000    461.35652   -876.15166   -891.35859    15.206928   -874.73457    50.788537    44703.804    35.490721    35.490721    35.490721    1.8730295 
  131000    438.88337   -875.64309   -890.10927    14.466183   -896.69234   -754.40146    44703.804    35.490721    35.490721    35.490721    1.8730295 
  132000    469.82853   -874.97762    -890.4638    15.486176   -881.70143   -240.97986    44703.804    35.490721    35.490721    35.490721    1.8730295 
  133000    489.12162   -874.03035   -890.15245    16.122103   -852.88341    757.90249    44703.804    35.490721    35.490721    35.490721    1.8730295 
  134000    475.33489   -874.52277   -890.19044    15.667673   -861.27825    474.68102    44703.804    35.490721    35.490721    35.490721    1.8730295 
  135000    472.48671   -874.25088   -889.82467    15.573794   -853.53798    742.34681    44703.804    35.490721    35.490721    35.490721    1.8730295 
  136000    510.84307   -873.32067   -890.15874    16.838071   -881.53562   -294.42248    44703.804    35.490721    35.490721    35.490721    1.8730295 
  137000    475.78173   -874.41142   -890.09382    15.682402   -876.01876   -57.606902    44703.804    35.490721    35.490721    35.490721    1.8730295 
  138000    487.82355   -873.71891   -889.79823    16.079316   -874.78479   -38.200849    44703.804    35.490721    35.490721    35.490721    1.8730295 
  139000    494.62961   -874.01681   -890.32046    16.303653   -871.69936    83.056984    44703.804    35.490721    35.490721    35.490721    1.8730295 
  140000    523.84703   -872.21052   -889.47722    17.266698   -873.44806   -44.353461    44703.804    35.490721    35.490721    35.490721    1.8730295 
  141000    499.34351   -872.79217    -889.2512     16.45903   -877.04266   -152.33691    44703.804    35.490721    35.490721    35.490721    1.8730295 
  142000    527.22499   -871.60645   -888.98449     17.37804   -860.51421    397.54402    44703.804    35.490721    35.490721    35.490721    1.8730295 
  143000    465.97208    -872.3356   -887.69466    15.359063   -877.58998   -188.31614    44703.804    35.490721    35.490721    35.490721    1.8730295 
  144000    515.56295   -873.96998   -890.96363    16.993644   -858.31922    560.92081    44703.804    35.490721    35.490721    35.490721    1.8730295 
  145000    522.61507   -872.57163   -889.79772    17.226092   -870.44654    76.162842    44703.804    35.490721    35.490721    35.490721    1.8730295 
  146000    548.52096   -871.09645   -889.17643    18.079984   -855.20913    569.39844    44703.804    35.490721    35.490721    35.490721    1.8730295 
  147000    505.16468   -872.14661   -888.79752    16.650903   -893.67466   -771.56152    44703.804    35.490721    35.490721    35.490721    1.8730295 
  148000    549.14563   -869.37433    -887.4749    18.100574   -872.40918   -108.76835    44703.804    35.490721    35.490721    35.490721    1.8730295 
  149000    480.07177   -871.43268   -887.25649    15.823807   -864.59713    244.98473    44703.804    35.490721    35.490721    35.490721    1.8730295 
  150000    552.30099   -868.36295   -886.56753    18.204579   -830.51107    1356.6047    44703.804    35.490721    35.490721    35.490721    1.8730295 
  151000    537.10961   -869.83785    -887.5417    17.703851   -865.10382    169.66671    44703.804    35.490721    35.490721    35.490721    1.8730295 
  152000    495.24089   -869.73593   -886.05973    16.323802   -875.94318   -222.46704    44703.804    35.490721    35.490721    35.490721    1.8730295 
  153000    583.20949   -868.16329   -887.38665    19.223365   -872.13609   -142.38451    44703.804    35.490721    35.490721    35.490721    1.8730295 
  154000    592.53424   -866.59095   -886.12167    19.530721   -843.31655     834.1503    44703.804    35.490721    35.490721    35.490721    1.8730295 
  155000    591.33258   -869.91105   -889.40216    19.491113   -862.32656    271.82696    44703.804    35.490721    35.490721    35.490721    1.8730295 
  156000    595.09336   -868.02233    -887.6374    19.615073   -884.63659   -595.45234    44703.804    35.490721    35.490721    35.490721    1.8730295 
  157000    592.25495   -865.54984   -885.07135    19.521515   -871.09932   -198.89238    44703.804    35.490721    35.490721    35.490721    1.8730295 
  158000    591.39409   -867.67176    -887.1649     19.49314   -874.32409   -238.41845    44703.804    35.490721    35.490721    35.490721    1.8730295 
  159000    576.95054   -865.84643   -884.86349    19.017061    -835.3257    1093.8576    44703.804    35.490721    35.490721    35.490721    1.8730295 
  160000    562.63314   -866.84266    -885.3878    18.545141   -843.89919    822.29002    44703.804    35.490721    35.490721    35.490721    1.8730295 
  161000    538.96692   -869.54282   -887.30789     17.76507   -869.54097  0.066060946    44703.804    35.490721    35.490721    35.490721    1.8730295 
  162000    578.39602   -865.35592   -884.42063    19.064706   -862.80758    91.332174    44703.804    35.490721    35.490721    35.490721    1.8730295 
  163000    654.38564   -865.67258   -887.24201    21.569426   -885.90731   -725.20918    44703.804    35.490721    35.490721    35.490721    1.8730295 
  164000     594.2297   -866.29051   -885.87712    19.586605   -863.10102    114.31062    44703.804    35.490721    35.490721    35.490721    1.8730295 
  165000    632.49912   -866.02503   -886.87304    20.848017   -849.74574    583.44698    44703.804    35.490721    35.490721    35.490721    1.8730295 
  166000    582.75455   -864.56966   -883.77803    19.208369   -879.35574    -529.9304    44703.804    35.490721    35.490721    35.490721    1.8730295 
  167000    657.38992   -861.99312   -883.66157    21.668451   -864.65438    -95.37903    44703.804    35.490721    35.490721    35.490721    1.8730295 
  168000    590.58733   -866.49667   -885.96322    19.466548    -897.7718   -1120.8952    44703.804    35.490721    35.490721    35.490721    1.8730295 
  169000    658.62387   -862.75086   -884.45999    21.709123   -856.94152    208.20573    44703.804    35.490721    35.490721    35.490721    1.8730295 
  170000    628.74855   -862.25417   -882.97856    20.724393   -891.48048   -1047.4657    44703.804    35.490721    35.490721    35.490721    1.8730295 
  171000    646.55686   -861.09071   -882.40209    21.311378   -851.26768    352.05566    44703.804    35.490721    35.490721    35.490721    1.8730295 
  172000    635.27761    -864.7633    -885.7029    20.939599   -854.31778     374.3654    44703.804    35.490721    35.490721    35.490721    1.8730295 
  173000    610.19829   -863.65062   -883.76357    20.112951    -871.6285    -285.9259    44703.804    35.490721    35.490721    35.490721    1.8730295 
  174000     620.1528   -865.02689   -885.46795    20.441065   -885.33454   -727.82271    44703.804    35.490721    35.490721    35.490721    1.8730295 
  175000    706.52417   -860.37641   -883.66439    23.287981   -863.28469   -104.23226    44703.804    35.490721    35.490721    35.490721    1.8730295 
  176000    716.23554   -859.06787   -882.67595    23.608081   -847.47265    415.57076    44703.804    35.490721    35.490721    35.490721    1.8730295 
  177000    690.56584   -862.10001   -884.86199    22.761973   -860.51363    56.855655    44703.804    35.490721    35.490721    35.490721    1.8730295 
  178000    677.86561   -860.89743   -883.24078    22.343357   -886.88387   -931.34963    44703.804    35.490721    35.490721    35.490721    1.8730295 
  179000    672.10438   -861.34334    -883.4968    22.153459   -855.43993    211.57729    44703.804    35.490721    35.490721    35.490721    1.8730295 
  180000    693.22533   -860.26808   -883.11771    22.849634   -844.82048    553.63905    44703.804    35.490721    35.490721    35.490721    1.8730295 
  181000    678.24438   -861.50599   -883.86183    22.355842   -846.85731    525.00622    44703.804    35.490721    35.490721    35.490721    1.8730295 
  182000    731.92878   -856.63643   -880.76178    24.125351   -873.27423   -596.29609    44703.804    35.490721    35.490721    35.490721    1.8730295 
  183000    691.82916   -858.46226   -881.26588    22.803614   -890.50673   -1148.4679    44703.804    35.490721    35.490721    35.490721    1.8730295 
  184000    722.20385   -858.54675   -882.35156    23.804805   -859.38749   -30.131801    44703.804    35.490721    35.490721    35.490721    1.8730295 
  185000    707.91102   -857.69834   -881.03204    23.333694   -844.40138    476.56091    44703.804    35.490721    35.490721    35.490721    1.8730295 
  186000    737.01137   -857.85986   -882.15274     24.29288    -852.0931    206.67971    44703.804    35.490721    35.490721    35.490721    1.8730295 
  187000    730.86371   -858.21115    -882.3014    24.090245   -855.89638    82.960936    44703.804    35.490721    35.490721    35.490721    1.8730295 
  188000    702.08776   -859.57814    -882.7199    23.141751   -864.11397   -162.56327    44703.804    35.490721    35.490721    35.490721    1.8730295 
  189000    715.35121   -856.90558   -880.48451    23.578932    -842.4947    516.48341    44703.804    35.490721    35.490721    35.490721    1.8730295 
  190000    798.13475    -854.3246   -880.63219    26.307589   -846.63808    275.48335    44703.804    35.490721    35.490721    35.490721    1.8730295 
  191000    793.35822   -855.29145    -881.4416    26.150148   -851.44642    137.80513    44703.804    35.490721    35.490721    35.490721    1.8730295 
  192000    674.12788   -855.05962   -877.27978    22.220156   -864.75407   -347.44744    44703.804    35.490721    35.490721    35.490721    1.8730295 
  193000    763.90518   -855.49403   -880.67336    25.179336   -871.21854   -563.56382    44703.804    35.490721    35.490721    35.490721    1.8730295 
  194000    767.21992   -850.83937   -876.12797    25.288594   -851.82451   -35.306961    44703.804    35.490721    35.490721    35.490721    1.8730295 
  195000    770.63724   -850.50759   -875.90882    25.401234   -844.59705    211.83277    44703.804    35.490721    35.490721    35.490721    1.8730295 
  196000     865.0784   -849.81603   -878.33017    28.514141   -846.88469    105.05897    44703.804    35.490721    35.490721    35.490721    1.8730295 
  197000    766.33414    -851.5911   -876.85049    25.259398    -864.4931    -462.4054    44703.804    35.490721    35.490721    35.490721    1.8730295 
  198000    745.75242   -851.19626   -875.77726    24.580997   -858.07676   -246.59595    44703.804    35.490721    35.490721    35.490721    1.8730295 
  199000    744.67426   -853.45486   -878.00032    24.545459   -875.44073   -787.96977    44703.804    35.490721    35.490721    35.490721    1.8730295 
  200000    829.91484   -851.12823   -878.48333    27.355103   -848.92752    78.872973    44703.804    35.490721    35.490721    35.490721    1.8730295 
  201000     741.3757    -852.2016   -876.63833    24.436734   -868.00648   -566.44432    44703.804    35.490721    35.490721    35.490721    1.8730295 
  202000    833.90343   -848.63415   -876.12072    27.486572   -849.54528   -32.654778    44703.804    35.490721    35.490721    35.490721    1.8730295 
  203000    903.11424   -848.84569   -878.61355    29.767853   -868.41457   -701.34517    44703.804    35.490721    35.490721    35.490721    1.8730295 
  204000    814.86026    -852.2179   -879.07678    26.858884   -861.18753   -321.46982    44703.804    35.490721    35.490721    35.490721    1.8730295 
  205000    873.23424   -848.84925   -877.63222    28.782968   -824.47459    873.58366    44703.804    35.490721    35.490721    35.490721    1.8730295 
  206000     783.7239    -850.0774   -875.90999    25.832588   -871.66081   -773.54566    44703.804    35.490721    35.490721    35.490721    1.8730295 
  207000    841.40353   -848.71218   -876.44597    27.733785   -854.80096   -218.22068    44703.804    35.490721    35.490721    35.490721    1.8730295 
  208000    888.80888    -846.3688   -875.66513    29.296329   -862.50098   -578.17446    44703.804    35.490721    35.490721    35.490721    1.8730295 
  209000    836.02149   -843.60773   -871.16411    27.556386   -818.13274    913.01891    44703.804    35.490721    35.490721    35.490721    1.8730295 
  210000    893.10695   -843.75347   -873.19147    29.437999   -869.85331   -935.41378    44703.804    35.490721    35.490721    35.490721    1.8730295 
  211000    863.33934   -848.81444   -877.27126    28.456819   -838.82346    358.07485    44703.804    35.490721    35.490721    35.490721    1.8730295 
  212000    804.60953   -847.47279    -873.9938    26.521006   -851.81765   -155.71892    44703.804    35.490721    35.490721    35.490721    1.8730295 
  213000    892.41293   -845.58635   -875.00148    29.415123   -845.48365     3.681055    44703.804    35.490721    35.490721    35.490721    1.8730295 
  214000    878.23952    -844.3902   -873.33815    28.947949   -818.87377    914.50459    44703.804    35.490721    35.490721    35.490721    1.8730295 
  215000    845.71888   -847.49882   -875.37485    27.876025    -846.1114    49.724943    44703.804    35.490721    35.490721    35.490721    1.8730295 
  216000    823.48108   -847.17788   -874.32091    27.143037   -844.25388    104.79538    44703.804    35.490721    35.490721    35.490721    1.8730295 
  217000    844.54769   -842.48033   -870.31775    27.837421   -867.86032   -909.61461    44703.804    35.490721    35.490721    35.490721    1.8730295 
  218000    929.94625   -841.32174   -871.97401    30.652272   -854.39463   -468.52999    44703.804    35.490721    35.490721    35.490721    1.8730295 
  219000    912.63032   -842.70905   -872.79057    30.081515   -831.08352    416.65712    44703.804    35.490721    35.490721    35.490721    1.8730295 
  220000    836.07008   -844.28112   -871.83911    27.557987   -841.56018    97.518031    44703.804    35.490721    35.490721    35.490721    1.8730295 
  221000    887.34255   -845.76094   -875.00894    29.247997    -868.0601   -799.19794    44703.804    35.490721    35.490721    35.490721    1.8730295 
  222000    985.87938   -839.47106   -871.96696    32.495903    -842.3906   -104.63589    44703.804    35.490721    35.490721    35.490721    1.8730295 
  223000    999.50281   -839.10552   -872.05046    32.944949   -810.59138    1021.9415    44703.804    35.490721    35.490721    35.490721    1.8730295 
  224000    846.08448   -839.25042    -867.1385    27.888076   -849.19413   -356.38085    44703.804    35.490721    35.490721    35.490721    1.8730295 
  225000    893.74294   -838.79159   -868.25055    29.458962   -855.75933   -608.12068    44703.804    35.490721    35.490721    35.490721    1.8730295 
  226000    822.43832   -844.63448   -871.74314    27.108667   -823.54889    755.70373    44703.804    35.490721    35.490721    35.490721    1.8730295 
  227000    988.54468   -835.10014   -867.68389    32.583754    -844.9638   -353.51191    44703.804    35.490721    35.490721    35.490721    1.8730295 
  228000    936.35805   -838.67682   -869.54043    30.863613   -848.70352   -359.35517    44703.804    35.490721    35.490721    35.490721    1.8730295 
  229000    988.42678   -835.99047   -868.57033    32.579868   -798.19098     1354.727    44703.804    35.490721    35.490721    35.490721    1.8730295 
  230000    1004.8153   -836.28653   -869.40659    33.120057   -844.28998   -286.84198    44703.804    35.490721    35.490721    35.490721    1.8730295 
  231000    1012.2159   -836.01921    -869.3832     33.36399   -853.06193   -610.80808    44703.804    35.490721    35.490721    35.490721    1.8730295 
  232000    949.53923   -838.59781    -869.8959    31.298083   -822.61764    572.72669    44703.804    35.490721    35.490721    35.490721    1.8730295 
  233000    907.95519   -839.96776   -869.89517    29.927417   -861.80923   -782.79443    44703.804    35.490721    35.490721    35.490721    1.8730295 
  234000    920.69198   -838.26098   -868.60822    30.347238   -855.19362   -606.86271    44703.804    35.490721    35.490721    35.490721    1.8730295 
  235000    933.80317    -837.4973   -868.27671    30.779401    -816.2805    760.40653    44703.804    35.490721    35.490721    35.490721    1.8730295 
  236000    942.15422   -839.11378   -870.16844    31.054663   -831.22841    282.61029    44703.804    35.490721    35.490721    35.490721    1.8730295 
  237000    866.43154   -842.57448   -871.13322    28.558742   -850.51489    -284.5829    44703.804    35.490721    35.490721    35.490721    1.8730295 
  238000    957.75267   -833.18741   -864.75622    31.568809   -863.91892   -1101.4118    44703.804    35.490721    35.490721    35.490721    1.8730295 
  239000    1072.3301    -832.7259   -868.07134    35.345435   -881.12522   -1734.6229    44703.804    35.490721    35.490721    35.490721    1.8730295 
  240000    991.72145   -838.46622   -871.15468    32.688465   -814.32103    865.35919    44703.804    35.490721    35.490721    35.490721    1.8730295 
  241000    926.13556   -834.65038   -865.17705    30.526666    -857.5795   -821.77558    44703.804    35.490721    35.490721    35.490721    1.8730295 
  242000    967.47986   -831.24183   -863.13126     31.88943   -855.66318   -875.25665    44703.804    35.490721    35.490721    35.490721    1.8730295 
  243000    987.16819   -835.53535   -868.07373    32.538384   -830.50035    180.45344    44703.804    35.490721    35.490721    35.490721    1.8730295 
  244000    975.40414    -834.5434   -866.69402    32.150624    -840.3225   -207.12183    44703.804    35.490721    35.490721    35.490721    1.8730295 
  245000    941.78481   -834.13479   -865.17728    31.042487   -842.87794   -313.35271    44703.804    35.490721    35.490721    35.490721    1.8730295 
  246000    1037.4701   -831.37913   -865.57554    34.196401   -809.82428    772.52227    44703.804    35.490721    35.490721    35.490721    1.8730295 
  247000    979.72791   -834.47423   -866.76737    32.293142   -835.83117   -48.632663    44703.804    35.490721    35.490721    35.490721    1.8730295 
  248000    1016.7017   -834.27622   -867.78807    33.511849   -853.75182   -698.00195    44703.804    35.490721    35.490721    35.490721    1.8730295 
  249000    944.46967   -837.06861   -868.19959    31.130983   -879.61117   -1524.7179    44703.804    35.490721    35.490721    35.490721    1.8730295 
  250000    1064.0281   -830.18129   -865.25308    35.071788   -841.09694   -391.21504    44703.804    35.490721    35.490721    35.490721    1.8730295 
  251000    1094.7506   -828.04026    -864.1247    36.084444   -808.91595    685.41186    44703.804    35.490721    35.490721    35.490721    1.8730295 
  252000    1084.3168   -824.82321   -860.56375    35.740531   -840.46945    -560.7582    44703.804    35.490721    35.490721    35.490721    1.8730295 
  253000    1105.3992   -827.40282   -863.83825    36.435436   -817.29762    362.16864    44703.804    35.490721    35.490721    35.490721    1.8730295 
  254000    1061.7351   -831.30132   -866.29753     34.99621    -845.9687   -525.67621    44703.804    35.490721    35.490721    35.490721    1.8730295 
  255000    1051.1915   -827.40543    -862.0541    34.648678   -822.74181     167.1431    44703.804    35.490721    35.490721    35.490721    1.8730295 
  256000    1067.3833   -825.29078   -860.47316    35.182381   -814.07718    401.89331    44703.804    35.490721    35.490721    35.490721    1.8730295 
  257000    1011.8048   -830.37517    -863.7256    33.350437   -836.78515    -229.7328    44703.804    35.490721    35.490721    35.490721    1.8730295 
  258000    1043.1537   -827.09867   -861.48241    34.383741   -820.58175     233.5653    44703.804    35.490721    35.490721    35.490721    1.8730295 
  259000    1050.2126   -826.97139    -861.5878    34.616412     -852.698   -922.03741    44703.804    35.490721    35.490721    35.490721    1.8730295 
  260000    1070.7776   -828.40161   -863.69587    35.294263   -815.65915    456.68741    44703.804    35.490721    35.490721    35.490721    1.8730295 
  261000    1072.4763   -827.91255   -863.26281    35.350254   -842.10272   -508.57331    44703.804    35.490721    35.490721    35.490721    1.8730295 
  262000    1124.1771   -823.53884   -860.59322    37.054379   -813.20419    370.39213    44703.804    35.490721    35.490721    35.490721    1.8730295 
  263000    1097.9782   -826.00631   -862.19714    36.190831   -805.43428    737.29784    44703.804    35.490721    35.490721    35.490721    1.8730295 
  264000     1182.185   -825.14549   -864.11188    38.966397   -829.08942   -141.34986    44703.804    35.490721    35.490721    35.490721    1.8730295 
  265000    1161.1632   -824.88591   -863.15941    38.273493   -818.86891    215.64839    44703.804    35.490721    35.490721    35.490721    1.8730295 
  266000    1118.4689   -822.30727    -859.1735     36.86623   -788.91342    1196.8297    44703.804    35.490721    35.490721    35.490721    1.8730295 
  267000    1150.2026   -823.47678   -861.38899    37.912214   -832.54459    -324.9888    44703.804    35.490721    35.490721    35.490721    1.8730295 
  268000    1066.6867    -827.0933   -862.25272    35.159419     -836.888   -351.04029    44703.804    35.490721    35.490721    35.490721    1.8730295 
  269000    1099.2454   -823.45787   -859.69047    36.232597   -824.40084   -33.795857    44703.804    35.490721    35.490721    35.490721    1.8730295 
  270000    1240.1349   -820.20207   -861.07858    40.876503   -849.85822    -1062.871    44703.804    35.490721    35.490721    35.490721    1.8730295 
  271000    1090.2994   -823.99185   -859.92957    35.937724   -814.64401    335.02489    44703.804    35.490721    35.490721    35.490721    1.8730295 
  272000    1165.9336   -818.88815   -857.31888    38.430732   -794.47264    875.04741    44703.804    35.490721    35.490721    35.490721    1.8730295 
  273000    1229.1028   -815.99084   -856.50371    40.512871    -831.4143   -552.77423    44703.804    35.490721    35.490721    35.490721    1.8730295 
  274000    1182.7641   -819.23557   -858.22105    38.985485   -836.63021   -623.42078    44703.804    35.490721    35.490721    35.490721    1.8730295 
  275000    1164.6911   -821.91265   -860.30242    38.389777   -827.13875   -187.30251    44703.804    35.490721    35.490721    35.490721    1.8730295 
  276000    1241.1785   -816.91044   -857.82134    40.910902   -813.34997    127.60653    44703.804    35.490721    35.490721    35.490721    1.8730295 
  277000    1189.2438   -818.33387   -857.53293    39.199065   -814.28324    145.17396    44703.804    35.490721    35.490721    35.490721    1.8730295 
  278000    1234.2584   -815.87146   -856.55427    40.682807   -846.95797   -1114.1351    44703.804    35.490721    35.490721    35.490721    1.8730295 
  279000    1127.4797   -819.75805   -856.92129    37.163239   -820.89813   -40.860349    44703.804    35.490721    35.490721    35.490721    1.8730295 
  280000    1195.7265   -818.53758   -857.95032    39.412744   -827.30711   -314.29851    44703.804    35.490721    35.490721    35.490721    1.8730295 
  281000    1250.5359   -820.38629   -861.60563    41.219335   -803.05449    621.16896    44703.804    35.490721    35.490721    35.490721    1.8730295 
  282000    1179.5963    -819.4097   -858.29077    38.881071   -813.34384    217.39934    44703.804    35.490721    35.490721    35.490721    1.8730295 
  283000    1306.7095   -812.55932   -855.63021    43.070891   -815.67149    -111.5396    44703.804    35.490721    35.490721    35.490721    1.8730295 
  284000    1294.9301   -812.68676   -855.36939    42.682629   -799.71571    464.88018    44703.804    35.490721    35.490721    35.490721    1.8730295 
  285000     1172.302    -819.4105   -858.05114     38.64064   -806.62801    458.12246    44703.804    35.490721    35.490721    35.490721    1.8730295 
  286000    1182.0829   -817.20185   -856.16488    38.963033   -838.01853   -746.06621    44703.804    35.490721    35.490721    35.490721    1.8730295 
  287000    1205.7456   -818.06487   -857.80786    39.742988   -814.00411     145.5369    44703.804    35.490721    35.490721    35.490721    1.8730295 
  288000    1248.6317    -816.0115   -857.16807    41.156572   -797.88476     649.6592    44703.804    35.490721    35.490721    35.490721    1.8730295 
  289000    1268.8313   -816.91332   -858.73569    41.822376   -817.14767   -8.3991504    44703.804    35.490721    35.490721    35.490721    1.8730295 
  290000    1257.9198   -819.11396   -860.57668     41.46272   -817.84455    45.495424    44703.804    35.490721    35.490721    35.490721    1.8730295 
  291000    1216.7675   -816.91626   -857.02254    40.106284   -831.96044   -539.18097    44703.804    35.490721    35.490721    35.490721    1.8730295 
  292000    1237.0956   -814.58634   -855.36267    40.776326   -786.86182    993.64185    44703.804    35.490721    35.490721    35.490721    1.8730295 
  293000    1271.4735   -811.62633    -853.5358    41.909467   -832.36261   -743.18457    44703.804    35.490721    35.490721    35.490721    1.8730295 
  294000    1211.0164   -814.66977   -854.58649    39.916719   -848.28951   -1204.9257    44703.804    35.490721    35.490721    35.490721    1.8730295 
  295000    1209.7377   -813.83598   -853.71055    39.874571   -819.99957   -220.90205    44703.804    35.490721    35.490721    35.490721    1.8730295 
  296000    1298.7937   -809.15818   -851.96816    42.809978   -758.35019    1820.9494    44703.804    35.490721    35.490721    35.490721    1.8730295 
  297000    1280.1712   -813.19725   -855.39341    42.196153   -811.16756    72.743952    44703.804    35.490721    35.490721    35.490721    1.8730295 
  298000    1295.5485   -812.87914   -855.58215     42.70301   -815.90264   -108.36167    44703.804    35.490721    35.490721    35.490721    1.8730295 
  299000    1267.8471   -808.98674   -850.77667    41.789935   -822.40008   -480.73166    44703.804    35.490721    35.490721    35.490721    1.8730295 
  300000    1320.9071   -804.63994   -848.17881    43.538864   -794.45997    364.84851    44703.804    35.490721    35.490721    35.490721    1.8730295 
  301000    1444.9299      -803.73   -851.35682     47.62682   -813.58982   -353.37437    44703.804    35.490721    35.490721    35.490721    1.8730295 
  302000    1326.1106   -807.15191   -850.86229    43.710378   -794.82155    441.91807    44703.804    35.490721    35.490721    35.490721    1.8730295 
  303000    1382.5215   -803.77129   -849.34104    45.569757   -814.24912   -375.52363    44703.804    35.490721    35.490721    35.490721    1.8730295 
  304000    1372.0861   -800.72582   -845.95162    45.225791   -760.66046    1435.9355    44703.804    35.490721    35.490721    35.490721    1.8730295 
  305000     1343.318   -807.81497   -852.09253    44.277556   -793.83877    500.90467    44703.804    35.490721    35.490721    35.490721    1.8730295 
  306000     1352.461   -803.93266   -848.51158    44.578923   -811.21116   -260.86034    44703.804    35.490721    35.490721    35.490721    1.8730295 
  307000    1332.8996   -808.42983   -852.36398    43.934152   -789.43361    680.82115    44703.804    35.490721    35.490721    35.490721    1.8730295 
  308000    1332.9534   -804.11683   -848.05276    43.935927   -830.32432   -939.27167    44703.804    35.490721    35.490721    35.490721    1.8730295 
  309000     1353.571    -802.9192    -847.5347    44.615508   -804.46829   -55.519204    44703.804    35.490721    35.490721    35.490721    1.8730295 
  310000    1213.8109   -812.78004   -852.78887    40.008829   -816.16066   -121.16088    44703.804    35.490721    35.490721    35.490721    1.8730295 
  311000    1300.2079   -807.54215   -850.39875    42.856592   -798.90164     309.6746    44703.804    35.490721    35.490721    35.490721    1.8730295 
  312000    1444.0679   -805.24718   -852.84559    47.598409   -806.19743   -34.056671    44703.804    35.490721    35.490721    35.490721    1.8730295 
  313000    1400.0522   -802.17839   -848.32598    46.147594   -806.99056   -172.46767    44703.804    35.490721    35.490721    35.490721    1.8730295 
  314000    1375.4836   -804.28879   -849.62657    45.337778   -795.08258    329.94876    44703.804    35.490721    35.490721    35.490721    1.8730295 
  315000    1399.4969   -799.05735   -845.18664     46.12929   -797.11899     69.47061    44703.804    35.490721    35.490721    35.490721    1.8730295 
  316000     1415.416   -802.54461   -849.19862    46.654002   -783.46081    683.96022    44703.804    35.490721    35.490721    35.490721    1.8730295 
  317000    1319.8673   -806.56341     -850.068     43.50459   -767.70522    1392.6706    44703.804    35.490721    35.490721    35.490721    1.8730295 
  318000     1348.259     -800.724   -845.16442     44.44042   -796.74938    142.44961    44703.804    35.490721    35.490721    35.490721    1.8730295 
  319000    1418.7934   -798.47443   -845.23975    46.765326   -781.73082     600.0879    44703.804    35.490721    35.490721    35.490721    1.8730295 
  320000    1467.8831   -797.34796   -845.73135    48.383388   -772.16077    902.70457    44703.804    35.490721    35.490721    35.490721    1.8730295 
  321000     1440.325   -797.79901   -845.27404    47.475038   -798.50154   -25.178845    44703.804    35.490721    35.490721    35.490721    1.8730295 
  322000    1552.4509   -791.11123   -842.28209    51.170856   -788.92295     78.42775    44703.804    35.490721    35.490721    35.490721    1.8730295 
  323000    1474.8163   -797.79956   -846.41148    48.611918   -759.54546    1371.0202    44703.804    35.490721    35.490721    35.490721    1.8730295 
  324000    1524.5992   -798.39076   -848.64359    50.252828   -796.98855    50.254988    44703.804    35.490721    35.490721    35.490721    1.8730295 
  325000      1383.08   -803.64517   -849.23334    45.588167   -812.51885   -318.03095    44703.804    35.490721    35.490721    35.490721    1.8730295 
  326000    1265.1621   -807.08308   -848.78452    41.701435   -836.37124   -1049.6825    44703.804    35.490721    35.490721    35.490721    1.8730295 
  327000    1469.8059   -794.69226   -843.13903    48.446768   -770.97245    850.11399    44703.804    35.490721    35.490721    35.490721    1.8730295 
  328000    1502.5486   -795.77108   -845.29709    49.526011   -790.24141    198.18238    44703.804    35.490721    35.490721    35.490721    1.8730295 
  329000    1514.3896   -791.39233   -841.30863    49.916305   -797.12076   -205.30591    44703.804    35.490721    35.490721    35.490721    1.8730295 
  330000    1400.5345   -799.73189   -845.89538    46.163489   -785.32101    516.48345    44703.804    35.490721    35.490721    35.490721    1.8730295 
  331000    1436.6163   -800.53102   -847.88381    47.352795    -793.0613    267.71348    44703.804    35.490721    35.490721    35.490721    1.8730295 
  332000    1518.8202   -792.46365     -842.526    50.062343   -799.07703   -237.02227    44703.804    35.490721    35.490721    35.490721    1.8730295 
  333000    1477.8672   -793.76136   -842.47384    48.712478   -764.85899    1035.8559    44703.804    35.490721    35.490721    35.490721    1.8730295 
  334000    1532.3495   -789.54104   -840.04933    50.508288   -796.43647   -247.13092    44703.804    35.490721    35.490721    35.490721    1.8730295 
  335000    1403.1554   -799.13236   -845.38223    46.249879   -809.68999   -378.38382    44703.804    35.490721    35.490721    35.490721    1.8730295 
  336000    1502.7737   -792.57926   -842.11269    49.533431   -768.69329    856.06865    44703.804    35.490721    35.490721    35.490721    1.8730295 
  337000    1563.7685   -787.92225   -839.46615    51.543902   -802.74244   -531.15299    44703.804    35.490721    35.490721    35.490721    1.8730295 
  338000    1688.9583   -787.25033   -842.92066    55.670325    -808.6305   -766.26136    44703.804    35.490721    35.490721    35.490721    1.8730295 
  339000     1433.372   -794.99602   -842.24188    47.245859   -788.41444    235.88278    44703.804    35.490721    35.490721    35.490721    1.8730295 
  340000    1572.2729    -788.3248   -840.14901    51.824217   -772.48841    567.57319    44703.804    35.490721    35.490721    35.490721    1.8730295 
Loop time of 20.9294 on 8 procs for 240000 steps with 256 atoms

Performance: 495.379 ns/day, 0.048 hours/ns, 11467.111 timesteps/s
89.5% CPU use with 8 MPI tasks x 1 OpenMP threads

MPI task timing breakdown:
Section |  min time  |  avg time  |  max time  |%varavg| %total
---------------------------------------------------------------
Pair    | 10.047     | 12.194     | 15.6       |  49.8 | 58.26
Neigh   | 0.017241   | 0.034836   | 0.061119   |   7.5 |  0.17
Comm    | 3.5331     | 6.9389     | 9.0323     |  64.5 | 33.15
Output  | 0.031519   | 0.031712   | 0.032887   |   0.2 |  0.15
Modify  | 1.0351     | 1.1932     | 1.3438     |  10.0 |  5.70
Other   |            | 0.5372     |            |       |  2.57

Nlocal:    32 ave 48 max 14 min
Histogram: 1 0 1 1 0 2 0 1 1 1
Nghost:    180.75 ave 193 max 168 min
Histogram: 1 0 2 0 1 1 0 1 0 2
Neighs:    940.375 ave 1689 max 274 min
Histogram: 1 1 1 2 0 0 1 0 0 2

Total # of neighbors = 7523
Ave neighs/atom = 29.3867
Neighbor list builds = 630
Dangerous builds = 0
System init for write_restart ...
Setting up Verlet run ...
  Unit style    : metal
  Current step  : 340000
  Time step     : 0.0005
Per MPI rank memory allocation (min/avg/max) = 4.947 | 4.947 | 4.947 Mbytes
Step Temp TotEng PotEng KinEng Enthalpy Press Lx Ly Lz Volume Density 
  340000    1572.2729    -788.3248   -840.14901    51.824217   -772.48841    567.57319    35.490721    35.490721    35.490721    44703.804    1.8730295 
  341000    1422.7928   -788.32481   -835.22196    46.897152   -768.65785     704.8604    35.490721    35.490721    35.490721    44703.804    1.8730295 
  342000    1484.9085    -788.3248   -837.26937    48.944568   -767.61996    742.05775    35.490721    35.490721    35.490721    44703.804    1.8730295 
  343000    1552.9634   -788.32483   -839.51258     51.18775   -799.09781   -386.10188    35.490721    35.490721    35.490721    44703.804    1.8730295 
  344000    1578.3205   -788.32481   -840.34837    52.023554   -775.92715    444.33007    35.490721    35.490721    35.490721    44703.804    1.8730295 
  345000    1481.2786   -788.32476   -837.14968    48.824924   -764.74165     845.2145    35.490721    35.490721    35.490721    44703.804    1.8730295 
  346000    1533.8235   -788.32482   -838.88169    50.556872   -793.38143   -181.22785    35.490721    35.490721    35.490721    44703.804    1.8730295 
  347000    1510.2861   -788.32475   -838.10579     49.78105   -768.20555    721.06837    35.490721    35.490721    35.490721    44703.804    1.8730295 
  348000    1561.1303   -788.32476    -839.7817    51.456941   -773.12904    544.61188    35.490721    35.490721    35.490721    44703.804    1.8730295 
  349000     1565.976    -788.3248   -839.94146    51.616663   -806.22327   -641.47819    35.490721    35.490721    35.490721    44703.804    1.8730295 
  350000    1577.3565   -788.32485   -840.31663     51.99178   -796.81701   -304.35732    35.490721    35.490721    35.490721    44703.804    1.8730295 
  351000    1526.8301   -788.32476   -838.65112    50.326362   -739.19855    1760.6747    35.490721    35.490721    35.490721    44703.804    1.8730295 
  352000    1553.3534   -788.32479   -839.52539    51.200605   -797.86436   -341.89651    35.490721    35.490721    35.490721    44703.804    1.8730295 
  353000    1616.6079   -788.32485   -841.61041    53.285559   -779.82252    304.72194    35.490721    35.490721    35.490721    44703.804    1.8730295 
  354000    1671.9349   -788.32487   -843.43408     55.10921   -779.57364    313.64261    35.490721    35.490721    35.490721    44703.804    1.8730295 
  355000    1541.9382   -788.32479   -839.14914    50.824344   -795.53596   -258.44685    35.490721    35.490721    35.490721    44703.804    1.8730295 
  356000    1625.8094   -788.32482   -841.91367    53.588851    -820.6664   -1159.1164    35.490721    35.490721    35.490721    44703.804    1.8730295 
  357000    1520.7632   -788.32479   -838.45118    50.126388   -824.24996   -1287.5518    35.490721    35.490721    35.490721    44703.804    1.8730295 
  358000    1591.1539   -788.32481   -840.77137     52.44656   -782.43582    211.06005    35.490721    35.490721    35.490721    44703.804    1.8730295 
  359000    1568.7179    -788.3249   -840.03194     51.70704   -786.55396    63.470332    35.490721    35.490721    35.490721    44703.804    1.8730295 
  360000    1663.4629   -788.32489   -843.15485    54.829961   -819.65054   -1122.7059    35.490721    35.490721    35.490721    44703.804    1.8730295 
  361000    1621.6457   -788.32489   -841.77649     53.45161   -817.14952   -1033.0699    35.490721    35.490721    35.490721    44703.804    1.8730295 
  362000    1604.1447   -788.32487   -841.19962    52.874754   -748.89782    1413.0585    35.490721    35.490721    35.490721    44703.804    1.8730295 
  363000    1487.2345   -788.32479   -837.34603    49.021238   -788.99861   -24.149673    35.490721    35.490721    35.490721    44703.804    1.8730295 
  364000    1479.8199   -788.32476    -837.1016    48.776844   -785.98577    83.828991    35.490721    35.490721    35.490721    44703.804    1.8730295 
  365000    1570.8695   -788.32485   -840.10281     51.77796   -795.13901   -244.21815    35.490721    35.490721    35.490721    44703.804    1.8730295 
  366000    1583.1099   -788.32486   -840.50628     52.18142   -788.42139   -3.4597341    35.490721    35.490721    35.490721    44703.804    1.8730295 
  367000    1522.6148   -788.32472   -838.51214    50.187419   -802.39992   -504.45263    35.490721    35.490721    35.490721    44703.804    1.8730295 
  368000    1481.9227   -788.32475    -837.1709    48.846152   -769.80989    663.56925    35.490721    35.490721    35.490721    44703.804    1.8730295 
  369000    1512.8545   -788.32484   -838.19054    49.865706   -796.56974   -295.49571    35.490721    35.490721    35.490721    44703.804    1.8730295 
  370000    1482.7221   -788.32478   -837.19728    48.872504   -782.23797    218.15013    35.490721    35.490721    35.490721    44703.804    1.8730295 
  371000    1512.6476   -788.32481   -838.18369    49.858886   -794.63813   -226.26837    35.490721    35.490721    35.490721    44703.804    1.8730295 
  372000    1558.2095   -788.32487   -839.68554    51.360668   -806.52956   -652.45282    35.490721    35.490721    35.490721    44703.804    1.8730295 
  373000     1500.659    -788.3248   -837.78852    49.463728   -788.51455   -6.8009002    35.490721    35.490721    35.490721    44703.804    1.8730295 
  374000    1600.1584   -788.32482   -841.06819    52.743361   -786.78972    55.017962    35.490721    35.490721    35.490721    44703.804    1.8730295 
  375000    1586.3791   -788.32479   -840.61396    52.289175    -799.9358   -416.13669    35.490721    35.490721    35.490721    44703.804    1.8730295 
  376000    1573.3542   -788.32487   -840.18473    51.859857   -826.13476   -1355.0999    35.490721    35.490721    35.490721    44703.804    1.8730295 
  377000    1587.7501    -788.3249   -840.65927    52.334367   -791.12264    -100.2703    35.490721    35.490721    35.490721    44703.804    1.8730295 
  378000    1498.1501   -788.32481   -837.70584    49.381031   -787.25106    38.483168    35.490721    35.490721    35.490721    44703.804    1.8730295 
  379000    1591.9645   -788.32481   -840.79809    52.473278   -765.22356    827.94483    35.490721    35.490721    35.490721    44703.804    1.8730295 
  380000    1450.1142    -788.3247    -836.1224    47.797703    -795.0767    -241.9903    35.490721    35.490721    35.490721    44703.804    1.8730295 
  381000    1582.6546   -788.32483   -840.49124     52.16641   -800.32577   -430.11164    35.490721    35.490721    35.490721    44703.804    1.8730295 
  382000    1675.6697   -788.32492   -843.55723    55.232312   -782.87367    195.37178    35.490721    35.490721    35.490721    44703.804    1.8730295 
  383000    1522.3845   -788.32482   -838.50465    50.179828   -792.83758    -161.7363    35.490721    35.490721    35.490721    44703.804    1.8730295 
  384000    1501.4568   -788.32484   -837.81487    49.490023   -800.79272   -446.84649    35.490721    35.490721    35.490721    44703.804    1.8730295 
  385000    1653.8043   -788.32484   -842.83644    54.511602   -763.79412    879.17681    35.490721    35.490721    35.490721    44703.804    1.8730295 
  386000    1502.6086   -788.32479   -837.85278    49.527989   -777.91831    372.96623    35.490721    35.490721    35.490721    44703.804    1.8730295 
  387000    1663.0358    -788.3249   -843.14078    54.815883   -780.11535     294.2287    35.490721    35.490721    35.490721    44703.804    1.8730295 
  388000    1459.8619   -788.32475   -836.44375    48.119001   -780.50719    280.18016    35.490721    35.490721    35.490721    44703.804    1.8730295 
  389000    1472.3393   -788.32472   -836.85499     48.53027   -782.64636    203.51141    35.490721    35.490721    35.490721    44703.804    1.8730295 
  390000    1508.3935   -788.32478   -838.04345    49.718667   -793.33848   -179.69023    35.490721    35.490721    35.490721    44703.804    1.8730295 
Loop time of 4.22802 on 8 procs for 50000 steps with 256 atoms

Performance: 510.878 ns/day, 0.047 hours/ns, 11825.872 timesteps/s
89.3% CPU use with 8 MPI tasks x 1 OpenMP threads

MPI task timing breakdown:
Section |  min time  |  avg time  |  max time  |%varavg| %total
---------------------------------------------------------------
Pair    | 2.0792     | 2.5026     | 3.1579     |  22.8 | 59.19
Neigh   | 0.0059044  | 0.011463   | 0.020188   |   4.4 |  0.27
Comm    | 0.81016    | 1.481      | 1.9112     |  30.3 | 35.03
Output  | 0.0067756  | 0.0068106  | 0.0070145  |   0.1 |  0.16
Modify  | 0.09648    | 0.10718    | 0.11505    |   1.9 |  2.54
Other   |            | 0.119      |            |       |  2.81

Nlocal:    32 ave 49 max 17 min
Histogram: 1 1 1 1 0 2 0 0 1 1
Nghost:    181 ave 196 max 170 min
Histogram: 1 2 0 0 2 1 0 0 1 1
Neighs:    933.125 ave 1659 max 326 min
Histogram: 1 1 2 1 0 0 0 1 0 2

Total # of neighbors = 7465
Ave neighs/atom = 29.1602
Neighbor list builds = 210
Dangerous builds = 0
System init for write_restart ...
Total wall time: 0:00:36
