LAMMPS (5 May 2020)
OMP_NUM_THREADS environment is not set. Defaulting to 1 thread. (../comm.cpp:94)
  using 1 OpenMP thread(s) per MPI task
Reading data file ...
  triclinic box = (0 0 0) to (25.6 25.6 25.6) with tilt (0 0 0)
  1 by 2 by 2 MPI processor grid
  reading atoms ...
  7 atoms
  read_data CPU = 0.000827074 secs
WARNING: Using 'neigh_modify every 1 delay 0 check yes' setting during minimization (../min.cpp:190)
Neighbor list info ...
  update every 1 steps, delay 0 steps, check yes
  max neighbors/atom: 2000, page size: 100000
  master list distance cutoff = 7.5155
  ghost atom cutoff = 7.5155
  binsize = 3.75775, bins = 7 7 7
  1 neighbor lists, perpetual/occasional/extra = 1 0 0
  (1) pair eam/alloy, perpetual
      attributes: half, newton on
      pair build: half/bin/newton/tri
      stencil: half/bin/3d/newton/tri
      bin: standard
Setting up cg style minimization ...
  Unit style    : metal
  Current step  : 0
WARNING: Energy due to 1 extra global DOFs will be included in minimizer energies
Per MPI rank memory allocation (min/avg/max) = 4.435 | 4.435 | 4.435 Mbytes
Step Temp E_pair E_mol TotEng Press Volume 
       0            0   -12.905878            0   -12.905878   -1046.5877    16777.216 
     267            0   -17.762588            0   -17.762588 -9.5387451e-07    10448.606 
Loop time of 0.00626564 on 4 procs for 267 steps with 7 atoms

101.1% CPU use with 4 MPI tasks x 1 OpenMP threads

Minimization stats:
  Stopping criterion = energy tolerance
  Energy initial, next-to-last, final = 
        -12.9058775866     -17.7625878334     -17.7625878334
  Force two-norm initial, final = 33.3096 1.20755e-07
  Force max component initial, final = 32.8781 5.16682e-08
  Final line search alpha, max atom move = 1 5.16682e-08
  Iterations, force evaluations = 267 306

MPI task timing breakdown:
Section |  min time  |  avg time  |  max time  |%varavg| %total
---------------------------------------------------------------
Pair    | 0.001344   | 0.0014515  | 0.0016053  |   0.3 | 23.17
Neigh   | 4.2915e-06 | 8.1658e-06 | 1.2159e-05 |   0.0 |  0.13
Comm    | 0.0012054  | 0.0013658  | 0.0015152  |   0.3 | 21.80
Output  | 0          | 0          | 0          |   0.0 |  0.00
Modify  | 0          | 0          | 0          |   0.0 |  0.00
Other   |            | 0.00344    |            |       | 54.91

Nlocal:    1.75 ave 5 max 0 min
Histogram: 1 0 2 0 0 0 0 0 0 1
Nghost:    5.25 ave 7 max 2 min
Histogram: 1 0 0 0 0 0 0 0 2 1
Neighs:    5.25 ave 16 max 0 min
Histogram: 2 0 0 1 0 0 0 0 0 1

Total # of neighbors = 21
Ave neighs/atom = 3
Neighbor list builds = 4
Dangerous builds = 0
Setting up Verlet run ...
  Unit style    : metal
  Current step  : 0
  Time step     : 0.0005
Per MPI rank memory allocation (min/avg/max) = 3.31 | 3.31 | 3.31 Mbytes
Step Temp TotEng PotEng KinEng Enthalpy Press Lx Ly Lz Volume Density 
       0            0   -17.762588   -17.762588            0   -17.762588 -9.5387644e-07     21.86181     21.86181     21.86181    10448.606   0.21912344 
    1000 8.4953413e-13   -17.762588   -17.762588 6.5886543e-16   -17.762588 2.1544936e-06     21.86181     21.86181     21.86181    10448.606   0.21912344 
    2000 1.4498199e-12   -17.762588   -17.762588 1.1244236e-15   -17.762588 -3.9006436e-06     21.86181     21.86181     21.86181    10448.606   0.21912344 
    3000 4.3869405e-13   -17.762588   -17.762588 3.4023394e-16   -17.762588 3.8039468e-06     21.86181     21.86181     21.86181    10448.606   0.21912344 
    4000 1.3273055e-13   -17.762588   -17.762588 1.0294062e-16   -17.762588 -2.1208829e-06     21.86181     21.86181     21.86181    10448.606   0.21912344 
    5000 1.2336303e-12   -17.762588   -17.762588 9.5675542e-16   -17.762588 -9.1760018e-07     21.86181     21.86181     21.86181    10448.606   0.21912344 
    6000 1.2188697e-12   -17.762588   -17.762588 9.4530764e-16   -17.762588 5.3306861e-06     21.86181     21.86181     21.86181    10448.606   0.21912344 
    7000 1.1109818e-13   -17.762588   -17.762588 8.6163403e-17   -17.762588 -8.2880735e-06     21.86181     21.86181     21.86181    10448.606   0.21912344 
    8000 4.4815642e-13   -17.762588   -17.762588 3.4757258e-16   -17.762588 7.1807975e-06     21.86181     21.86181     21.86181    10448.606   0.21912344 
    9000 1.4533846e-12   -17.762588   -17.762588 1.1271882e-15   -17.762588 -3.4165458e-06     21.86181     21.86181     21.86181    10448.606   0.21912344 
   10000 8.3794796e-13   -17.762588   -17.762588 6.4987965e-16   -17.762588 -3.3481472e-07     21.86181     21.86181     21.86181    10448.606   0.21912344 
   11000 1.218982e-14   -17.762588   -17.762588 9.4539477e-18   -17.762588 3.3345257e-06     21.86181     21.86181     21.86181    10448.606   0.21912344 
   12000 8.7028242e-13   -17.762588   -17.762588 6.7495699e-16   -17.762588 -4.7680565e-06     21.86181     21.86181     21.86181    10448.606   0.21912344 
   13000 1.4451388e-12   -17.762588   -17.762588 1.1207931e-15   -17.762588 3.4328812e-06     21.86181     21.86181     21.86181    10448.606   0.21912344 
   14000 4.1097671e-13   -17.762588   -17.762588 3.1873745e-16   -17.762588 -1.3601828e-06     21.86181     21.86181     21.86181    10448.606   0.21912344 
   15000 1.3545718e-13   -17.762588   -17.762588 1.0505529e-16   -17.762588 1.3881545e-06     21.86181     21.86181     21.86181    10448.606   0.21912344 
   16000 1.2429462e-12   -17.762588   -17.762588 9.639804e-16   -17.762588 -2.7411144e-06     21.86181     21.86181     21.86181    10448.606   0.21912344 
   17000 1.2102588e-12   -17.762588   -17.762588 9.3862939e-16   -17.762588 3.3852887e-06     21.86181     21.86181     21.86181    10448.606   0.21912344 
   18000 1.1330349e-13   -17.762588   -17.762588 8.7873752e-17   -17.762588 -3.0063048e-06     21.86181     21.86181     21.86181    10448.606   0.21912344 
   19000 4.6952169e-13   -17.762588   -17.762588 3.6414265e-16   -17.762588 1.2283572e-06     21.86181     21.86181     21.86181    10448.606   0.21912344 
   20000 1.4603583e-12   -17.762588   -17.762588 1.1325968e-15   -17.762588 2.8788894e-06     21.86181     21.86181     21.86181    10448.606   0.21912344 
   21000   8.0945e-13   -17.762588   -17.762588 6.2777775e-16   -17.762588 -7.1418505e-06     21.86181     21.86181     21.86181    10448.606   0.21912344 
   22000 5.4576317e-15   -17.762588   -17.762588 4.2327256e-18   -17.762588 8.0161519e-06     21.86181     21.86181     21.86181    10448.606   0.21912344 
   23000 8.8153331e-13   -17.762588   -17.762588 6.8368274e-16   -17.762588 -5.6573353e-06     21.86181     21.86181     21.86181    10448.606   0.21912344 
   24000 1.4434367e-12   -17.762588   -17.762588 1.119473e-15   -17.762588 2.0666119e-06     21.86181     21.86181     21.86181    10448.606   0.21912344 
   25000 4.0551936e-13   -17.762588   -17.762588 3.1450495e-16   -17.762588 1.8917995e-06     21.86181     21.86181     21.86181    10448.606   0.21912344 
   26000 1.5231542e-13   -17.762588   -17.762588 1.1812988e-16   -17.762588 -4.8605796e-06     21.86181     21.86181     21.86181    10448.606   0.21912344 
   27000 1.2600994e-12   -17.762588   -17.762588 9.7728377e-16   -17.762588 4.7259167e-06     21.86181     21.86181     21.86181    10448.606   0.21912344 
   28000 1.1867445e-12   -17.762588   -17.762588 9.2039257e-16   -17.762588 -2.4619542e-06     21.86181     21.86181     21.86181    10448.606   0.21912344 
   29000 9.7194669e-14   -17.762588   -17.762588 7.5380382e-17   -17.762588 1.384159e-06     21.86181     21.86181     21.86181    10448.606   0.21912344 
   30000 4.7768294e-13   -17.762588   -17.762588 3.704722e-16   -17.762588 -1.8493947e-06     21.86181     21.86181     21.86181    10448.606   0.21912344 
   31000 1.4671188e-12   -17.762588   -17.762588  1.13784e-15   -17.762588 2.4309748e-06     21.86181     21.86181     21.86181    10448.606   0.21912344 
   32000 8.0070011e-13   -17.762588   -17.762588 6.2099168e-16   -17.762588 -2.9521818e-06     21.86181     21.86181     21.86181    10448.606   0.21912344 
   33000 1.4469535e-14   -17.762588   -17.762588 1.1222005e-17   -17.762588 2.5944285e-06     21.86181     21.86181     21.86181    10448.606   0.21912344 
   34000 9.0480715e-13   -17.762588   -17.762588 7.0173302e-16   -17.762588 4.3373943e-07     21.86181     21.86181     21.86181    10448.606   0.21912344 
   35000 1.4294954e-12   -17.762588   -17.762588 1.1086607e-15   -17.762588 -5.1047591e-06     21.86181     21.86181     21.86181    10448.606   0.21912344 
   36000 3.8295694e-13   -17.762588   -17.762588 2.9700642e-16   -17.762588 7.694536e-06     21.86181     21.86181     21.86181    10448.606   0.21912344 
   37000 1.5275096e-13   -17.762588   -17.762588 1.1846767e-16   -17.762588 -7.1006011e-06     21.86181     21.86181     21.86181    10448.606   0.21912344 
   38000 1.2739921e-12   -17.762588   -17.762588 9.8805843e-16   -17.762588 4.5461826e-06     21.86181     21.86181     21.86181    10448.606   0.21912344 
   39000 1.1796669e-12   -17.762588   -17.762588 9.1490345e-16   -17.762588 -3.738489e-07     21.86181     21.86181     21.86181    10448.606   0.21912344 
   40000 9.7738385e-14   -17.762588   -17.762588 7.5802067e-17   -17.762588 -3.949779e-06     21.86181     21.86181     21.86181    10448.606   0.21912344 
   41000 5.0159966e-13   -17.762588   -17.762588 3.8902107e-16   -17.762588 5.4675482e-06     21.86181     21.86181     21.86181    10448.606   0.21912344 
   42000 1.4649059e-12   -17.762588   -17.762588 1.1361237e-15   -17.762588 -3.8853994e-06     21.86181     21.86181     21.86181    10448.606   0.21912344 
   43000 7.766415e-13   -17.762588   -17.762588 6.0233276e-16   -17.762588 2.1541118e-06     21.86181     21.86181     21.86181    10448.606   0.21912344 
   44000 4.3860073e-15   -17.762588   -17.762588 3.4016156e-18   -17.762588 -1.6077965e-06     21.86181     21.86181     21.86181    10448.606   0.21912344 
   45000 9.2199055e-13   -17.762588   -17.762588 7.1505979e-16   -17.762588 1.488547e-06     21.86181     21.86181     21.86181    10448.606   0.21912344 
   46000 1.4281232e-12   -17.762588   -17.762588 1.1075965e-15   -17.762588 -2.1662047e-06     21.86181     21.86181     21.86181    10448.606   0.21912344 
   47000 3.7723774e-13   -17.762588   -17.762588 2.9257083e-16   -17.762588 3.0128681e-06     21.86181     21.86181     21.86181    10448.606   0.21912344 
   48000 1.7198742e-13   -17.762588   -17.762588 1.3338672e-16   -17.762588 -1.4546715e-06     21.86181     21.86181     21.86181    10448.606   0.21912344 
   49000 1.2826637e-12   -17.762588   -17.762588 9.9478379e-16   -17.762588 -2.6973151e-06     21.86181     21.86181     21.86181    10448.606   0.21912344 
   50000 1.1596986e-12   -17.762588   -17.762588 8.9941686e-16   -17.762588 6.3163089e-06     21.86181     21.86181     21.86181    10448.606   0.21912344 
Loop time of 0.649904 on 4 procs for 50000 steps with 7 atoms

Performance: 3323.570 ns/day, 0.007 hours/ns, 76934.480 timesteps/s
74.0% CPU use with 4 MPI tasks x 1 OpenMP threads

MPI task timing breakdown:
Section |  min time  |  avg time  |  max time  |%varavg| %total
---------------------------------------------------------------
Pair    | 0.22608    | 0.23855    | 0.26205    |   3.0 | 36.71
Neigh   | 0          | 0          | 0          |   0.0 |  0.00
Comm    | 0.24588    | 0.27669    | 0.30192    |   3.8 | 42.57
Output  | 0.0016441  | 0.0018982  | 0.0025725  |   0.9 |  0.29
Modify  | 0.039668   | 0.051262   | 0.056748   |   3.1 |  7.89
Other   |            | 0.08151    |            |       | 12.54

Nlocal:    1.75 ave 5 max 0 min
Histogram: 1 0 2 0 0 0 0 0 0 1
Nghost:    5.25 ave 7 max 2 min
Histogram: 1 0 0 0 0 0 0 0 2 1
Neighs:    5.25 ave 15 max 0 min
Histogram: 2 0 0 0 1 0 0 0 0 1

Total # of neighbors = 21
Ave neighs/atom = 3
Neighbor list builds = 0
Dangerous builds = 0
System init for write_restart ...
Neighbor list info ...
  update every 10 steps, delay 0 steps, check yes
  max neighbors/atom: 2000, page size: 100000
  master list distance cutoff = 7.5155
  ghost atom cutoff = 7.5155
  binsize = 3.75775, bins = 6 6 6
  2 neighbor lists, perpetual/occasional/extra = 1 1 0
  (1) pair eam/alloy, perpetual
      attributes: half, newton on
      pair build: half/bin/newton/tri
      stencil: half/bin/3d/newton/tri
      bin: standard
  (2) compute rdf, occasional, copy from (1)
      attributes: half, newton on
      pair build: copy
      stencil: none
      bin: none
Setting up Verlet run ...
  Unit style    : metal
  Current step  : 0
  Time step     : 0.0005
Per MPI rank memory allocation (min/avg/max) = 3.941 | 4.691 | 4.941 Mbytes
Step Temp TotEng PotEng KinEng Enthalpy Press Volume Lx Ly Lz Density 
       0         1000   -16.987027   -17.762588   0.77556087   -16.469986    79.282381    10448.606     21.86181     21.86181     21.86181   0.21912344 
    1000    937.24452    -16.58385    -17.31074   0.72689017   -17.211324   -96.216048    10448.606     21.86181     21.86181     21.86181   0.21912344 
    2000    1182.5186   -16.346704   -17.263819   0.91711518   -15.060472    197.22927    10448.606     21.86181     21.86181     21.86181   0.21912344 
    3000    905.56039   -16.190659   -16.892976    0.7023172   -19.707305   -539.23821    10448.606     21.86181     21.86181     21.86181   0.21912344 
    4000    1382.7871   -15.820404    -16.89284    1.0724356   -13.491724    357.07701    10448.606     21.86181     21.86181     21.86181   0.21912344 
    5000     743.6906   -16.767243    -17.34402   0.57677733   -18.714137    -298.5343    10448.606     21.86181     21.86181     21.86181   0.21912344 
    6000    1012.5817   -16.026421   -16.811739   0.78531874   -14.787163    190.02631    10448.606     21.86181     21.86181     21.86181   0.21912344 
    7000    398.66878   -17.047117   -17.356309   0.30919191   -16.102578    144.83446    10448.606     21.86181     21.86181     21.86181   0.21912344 
    8000    625.62798   -16.828438   -17.313651   0.48521258   -16.715829    17.267371    10448.606     21.86181     21.86181     21.86181   0.21912344 
    9000    1079.0523   -16.813125   -17.649996   0.83687077   -14.653556     331.1456    10448.606     21.86181     21.86181     21.86181   0.21912344 
   10000    753.85737   -16.993055   -17.577717   0.58466228   -18.271786   -196.07916    10448.606     21.86181     21.86181     21.86181   0.21912344 
   11000    944.63474   -16.754172   -17.486794   0.73262174   -12.275143    686.80882    10448.606     21.86181     21.86181     21.86181   0.21912344 
   12000    1328.8045   -16.302865   -17.333434    1.0305688   -18.817049   -385.52189    10448.606     21.86181     21.86181     21.86181   0.21912344 
   13000    1367.6996   -16.434688   -17.495422    1.0607343   -17.022249   -90.095979    10448.606     21.86181     21.86181     21.86181   0.21912344 
   14000    1164.7455   -16.876606   -17.779937   0.90333102   -17.119795   -37.290281    10448.606     21.86181     21.86181     21.86181   0.21912344 
   15000    1002.2621    -16.35078   -17.128095   0.77731525   -16.504555    -23.57974    10448.606     21.86181     21.86181     21.86181   0.21912344 
   16000    1027.9269   -16.846155   -17.643375   0.79721986   -15.693381    176.76499    10448.606     21.86181     21.86181     21.86181   0.21912344 
   17000    796.76588   -16.766858   -17.384799   0.61794044   -19.878532   -477.14022    10448.606     21.86181     21.86181     21.86181   0.21912344 
   18000    774.39908   -16.791113   -17.391707   0.60059363   -13.859294    449.56159    10448.606     21.86181     21.86181     21.86181   0.21912344 
   19000    1026.7574   -16.593873   -17.390186   0.79631283   -19.202208   -399.95882    10448.606     21.86181     21.86181     21.86181   0.21912344 
   20000    795.15753   -16.965801   -17.582494   0.61669306   -12.817848    636.04205    10448.606     21.86181     21.86181     21.86181   0.21912344 
   21000    864.45648   -17.041592    -17.71203   0.67043862   -18.464139   -218.13174    10448.606     21.86181     21.86181     21.86181   0.21912344 
   22000     1046.042   -16.241066   -17.052335   0.81126928   -14.208963    311.60019    10448.606     21.86181     21.86181     21.86181   0.21912344 
   23000    337.12397   -16.731238   -16.992698   0.26146016   -20.729729   -613.12371    10448.606     21.86181     21.86181     21.86181   0.21912344 
   24000    926.19373   -16.395642   -17.113962   0.71831962   -11.819935     701.6334    10448.606     21.86181     21.86181     21.86181   0.21912344 
   25000    735.57298    -16.49057   -17.061052   0.57048162   -21.573854   -779.46448    10448.606     21.86181     21.86181     21.86181   0.21912344 
   26000    893.18923   -16.519728   -17.212451   0.69272261   -13.470752    467.52635    10448.606     21.86181     21.86181     21.86181   0.21912344 
   27000    895.41757   -16.955383   -17.649834   0.69445083   -17.950766   -152.63079    10448.606     21.86181     21.86181     21.86181   0.21912344 
   28000    1119.5623   -16.515469   -17.383758   0.86828868   -16.663994   -22.774526    10448.606     21.86181     21.86181     21.86181   0.21912344 
   29000    575.25121   -16.807581   -17.253723   0.44614233    -13.93056    441.15896    10448.606     21.86181     21.86181     21.86181   0.21912344 
   30000    1502.5543   -16.742563   -17.907886    1.1653223   -20.628409   -595.85078    10448.606     21.86181     21.86181     21.86181   0.21912344 
   31000    1262.8033    -16.91432   -17.893701   0.97938084   -15.489626    218.46092    10448.606     21.86181     21.86181     21.86181   0.21912344 
   32000    802.04763   -17.298453   -17.920489   0.62203676   -19.519438   -340.56314    10448.606     21.86181     21.86181     21.86181   0.21912344 
   33000    1133.1159   -16.921624   -17.800425   0.87880038   -15.741086    181.02232    10448.606     21.86181     21.86181     21.86181   0.21912344 
   34000    954.20982    -17.10998   -17.850028    0.7400478   -17.340586   -35.360888    10448.606     21.86181     21.86181     21.86181   0.21912344 
   35000    818.92424   -16.713399   -17.348524   0.63512559   -16.156771    85.352621    10448.606     21.86181     21.86181     21.86181   0.21912344 
   36000    1639.5075   -16.112894   -17.384432    1.2715378   -15.874573    36.543858    10448.606     21.86181     21.86181     21.86181   0.21912344 
   37000    1114.8894   -16.818656   -17.683321   0.86466463   -18.246595   -218.95838    10448.606     21.86181     21.86181     21.86181   0.21912344 
   38000    764.67173   -17.327059   -17.920109   0.59304947   -18.191658   -132.57648    10448.606     21.86181     21.86181     21.86181   0.21912344 
   39000    1093.3007   -16.884524   -17.732445   0.84792124   -14.284399    398.69999    10448.606     21.86181     21.86181     21.86181   0.21912344 
   40000    754.37185   -17.287471   -17.872532   0.58506129    -19.99752   -415.55576    10448.606     21.86181     21.86181     21.86181   0.21912344 
   41000    536.10518   -16.817826   -17.233609    0.4157822   -8.6556454    1251.5789    10448.606     21.86181     21.86181     21.86181   0.21912344 
   42000    552.68113   -17.516379   -17.945017   0.42863786   -21.907637   -673.35026    10448.606     21.86181     21.86181     21.86181   0.21912344 
   43000    849.82198   -17.227407   -17.886496   0.65908867   -13.937819    504.42136    10448.606     21.86181     21.86181     21.86181   0.21912344 
   44000    1416.9036   -16.762607   -17.861502     1.098895   -16.004679    116.21976    10448.606     21.86181     21.86181     21.86181   0.21912344 
   45000       1016.1   -17.071176   -17.859223   0.78804738   -15.595987    226.20357    10448.606     21.86181     21.86181     21.86181   0.21912344 
   46000    1099.1162   -17.130844   -17.983275   0.85243148   -16.565397    86.704879    10448.606     21.86181     21.86181     21.86181   0.21912344 
   47000    994.41423   -17.031948   -17.803177   0.77122876   -17.876521   -129.50579    10448.606     21.86181     21.86181     21.86181   0.21912344 
   48000    1267.2109   -16.705881   -17.688681   0.98279921   -16.266148    67.428247    10448.606     21.86181     21.86181     21.86181   0.21912344 
   49000    518.32282   -17.425887   -17.827878    0.4019909   -17.862278   -66.915744    10448.606     21.86181     21.86181     21.86181   0.21912344 
   50000    1106.5547   -16.529954   -17.388154   0.85820055   -15.631262    137.80422    10448.606     21.86181     21.86181     21.86181   0.21912344 
Loop time of 0.752779 on 4 procs for 50000 steps with 7 atoms

Performance: 2869.368 ns/day, 0.008 hours/ns, 66420.556 timesteps/s
77.2% CPU use with 4 MPI tasks x 1 OpenMP threads

MPI task timing breakdown:
Section |  min time  |  avg time  |  max time  |%varavg| %total
---------------------------------------------------------------
Pair    | 0.2324     | 0.24521    | 0.274      |   3.4 | 32.57
Neigh   | 0.00016236 | 0.00019222 | 0.00026393 |   0.0 |  0.03
Comm    | 0.22366    | 0.24629    | 0.29135    |   5.5 | 32.72
Output  | 0.0038266  | 0.0039582  | 0.004339   |   0.3 |  0.53
Modify  | 0.14827    | 0.17623    | 0.21277    |   5.7 | 23.41
Other   |            | 0.0809     |            |       | 10.75

Nlocal:    1.75 ave 5 max 0 min
Histogram: 2 0 0 0 1 0 0 0 0 1
Nghost:    5.75 ave 8 max 2 min
Histogram: 1 0 0 0 0 0 1 0 1 1
Neighs:    5.25 ave 16 max 0 min
Histogram: 2 0 0 1 0 0 0 0 0 1

Total # of neighbors = 21
Ave neighs/atom = 3
Neighbor list builds = 54
Dangerous builds = 0
System init for write_restart ...
Setting up Verlet run ...
  Unit style    : metal
  Current step  : 50000
  Time step     : 0.0005
Per MPI rank memory allocation (min/avg/max) = 3.942 | 4.691 | 4.941 Mbytes
Step Temp TotEng PotEng KinEng Enthalpy Press Lx Ly Lz Volume Density 
   50000    1106.5547   -16.529954   -17.388154   0.85820055   -15.631262    137.80422     21.86181     21.86181     21.86181    10448.606   0.21912344 
   51000     1620.317   -16.529956    -17.78661    1.2566544   -14.735386     275.1772     21.86181     21.86181     21.86181    10448.606   0.21912344 
   52000    1049.8689   -16.529946   -17.344183    0.8142372    -18.64071   -323.66197     21.86181     21.86181     21.86181    10448.606   0.21912344 
   53000    1595.5887   -16.529969   -17.767445    1.2374762   -14.834914    259.91757     21.86181     21.86181     21.86181    10448.606   0.21912344 
   54000    1172.1858   -16.529946   -17.439048   0.90910145   -13.789892    420.15658     21.86181     21.86181     21.86181    10448.606   0.21912344 
   55000    850.72459   -16.529944   -17.189733    0.6597887   -16.922539   -60.200001     21.86181     21.86181     21.86181    10448.606   0.21912344 
   56000    972.15028   -16.529942   -17.283904   0.75396172   -15.243875      197.204     21.86181     21.86181     21.86181    10448.606   0.21912344 
   57000    1076.5615   -16.529958   -17.364897     0.834939   -16.305867    34.361818     21.86181     21.86181     21.86181    10448.606   0.21912344 
   58000    1238.3921   -16.529948   -17.490397   0.96044844   -18.773903    -344.0853     21.86181     21.86181     21.86181    10448.606   0.21912344 
   59000    1327.7082   -16.529939   -17.559658    1.0297185   -15.139256    213.24569     21.86181     21.86181     21.86181    10448.606   0.21912344 
   60000    1319.6011    -16.52996   -17.553391    1.0234309   -11.935804    704.46228     21.86181     21.86181     21.86181    10448.606   0.21912344 
   61000    1064.1907    -16.52994   -17.355285   0.82534466   -21.409666   -748.25127     21.86181     21.86181     21.86181    10448.606   0.21912344 
   62000     1054.111   -16.529945   -17.347472   0.81752721   -15.037048    228.91905     21.86181     21.86181     21.86181    10448.606   0.21912344 
   63000    1382.7132   -16.529958   -17.602336    1.0723783   -14.797261    265.68963     21.86181     21.86181     21.86181    10448.606   0.21912344 
   64000    946.81582   -16.529955   -17.264268    0.7343133   -15.702472    126.88528     21.86181     21.86181     21.86181    10448.606   0.21912344 
   65000     782.4885   -16.529945   -17.136812   0.60686746   -18.910631   -365.05146     21.86181     21.86181     21.86181    10448.606   0.21912344 
   66000    1316.3073   -16.529953   -17.550829    1.0208765   -11.870522    714.47145     21.86181     21.86181     21.86181    10448.606   0.21912344 
   67000    737.74218   -16.529937   -17.102101   0.57216396   -22.730523   -950.79018     21.86181     21.86181     21.86181    10448.606   0.21912344 
   68000    831.13068   -16.529941   -17.174534   0.64459243   -9.3705662    1097.8099     21.86181     21.86181     21.86181    10448.606   0.21912344 
   69000    1158.2627   -16.529946   -17.428249   0.89830325    -20.55783   -617.63081     21.86181     21.86181     21.86181    10448.606   0.21912344 
   70000    822.30444    -16.52995   -17.167697   0.63774715   -15.723356    123.68215     21.86181     21.86181     21.86181    10448.606   0.21912344 
   71000    1202.1726   -16.529949   -17.462307   0.93235805   -17.630279   -168.72326     21.86181     21.86181     21.86181    10448.606   0.21912344 
   72000    1300.4019   -16.529955   -17.538495    1.0085408   -16.219278    47.638706     21.86181     21.86181     21.86181    10448.606   0.21912344 
   73000     1120.037    -16.52995   -17.398607   0.86865687   -17.207642    -103.9165     21.86181     21.86181     21.86181    10448.606   0.21912344 
   74000    1260.5993   -16.529947   -17.507619   0.97767145   -19.734009     -491.307     21.86181     21.86181     21.86181    10448.606   0.21912344 
   75000     1084.169   -16.529947   -17.370786   0.84083907   -15.247324    196.67583     21.86181     21.86181     21.86181    10448.606   0.21912344 
   76000    1109.3954   -16.529943   -17.390347   0.86040369   -19.054489   -387.11076     21.86181     21.86181     21.86181    10448.606   0.21912344 
   77000    1125.0954   -16.529957   -17.402537   0.87257996   -14.845399     258.3081     21.86181     21.86181     21.86181    10448.606   0.21912344 
   78000    1593.6054   -16.529956   -17.765894     1.235938   -18.363201   -281.10752     21.86181     21.86181     21.86181    10448.606   0.21912344 
   79000    1664.2699   -16.529958     -17.8207    1.2907426   -16.252481    42.547873     21.86181     21.86181     21.86181    10448.606   0.21912344 
   80000    1341.2766   -16.529948    -17.57019    1.0402417   -17.592177   -162.88087     21.86181     21.86181     21.86181    10448.606   0.21912344 
   81000    1330.1705   -16.529955   -17.561583    1.0316282   -16.995892   -71.446224     21.86181     21.86181     21.86181    10448.606   0.21912344 
   82000    1153.0559   -16.529957   -17.424222   0.89426503   -15.492571    159.07153     21.86181     21.86181     21.86181    10448.606   0.21912344 
   83000    1105.4844   -16.529948   -17.387319   0.85737047   -11.528608    766.89944     21.86181     21.86181     21.86181    10448.606   0.21912344 
   84000     1203.856   -16.529941   -17.463605   0.93366358   -13.815103    416.28997     21.86181     21.86181     21.86181    10448.606   0.21912344 
   85000     751.6896   -16.529949    -17.11293   0.58298104   -18.216574   -258.62509     21.86181     21.86181     21.86181    10448.606   0.21912344 
   86000     1447.205   -16.529959   -17.652355    1.1223956    -13.83097    413.85963     21.86181     21.86181     21.86181    10448.606   0.21912344 
   87000    807.81713   -16.529939    -17.15645   0.62651136   -21.997604   -838.40509     21.86181     21.86181     21.86181    10448.606   0.21912344 
   88000    1288.7909   -16.529956   -17.529492   0.99953582   -17.304744   -118.80511     21.86181     21.86181     21.86181    10448.606   0.21912344 
   89000    1034.6834   -16.529943   -17.332403   0.80245993   -15.685108    129.54608     21.86181     21.86181     21.86181    10448.606   0.21912344 
   90000    1223.9353   -16.529947   -17.479184   0.94923635   -20.521296   -612.02863     21.86181     21.86181     21.86181    10448.606   0.21912344 
   91000    876.09422   -16.529946    -17.20941   0.67946439    -17.59786   -163.75266     21.86181     21.86181     21.86181    10448.606   0.21912344 
   92000     616.4673   -16.529939   -17.008047   0.47810791   -15.529867    153.34979     21.86181     21.86181     21.86181    10448.606   0.21912344 
   93000    1315.5723   -16.529952   -17.550258    1.0203064   -20.761006   -648.78469     21.86181     21.86181     21.86181    10448.606   0.21912344 
   94000    1278.3784   -16.529954   -17.521414   0.99146023   -15.645624    135.60204     21.86181     21.86181     21.86181    10448.606   0.21912344 
   95000     1436.966    -16.52995   -17.644405    1.1144546   -19.084286   -391.67877     21.86181     21.86181     21.86181    10448.606   0.21912344 
   96000    1352.9255   -16.529948   -17.579224    1.0492761   -10.101703    985.69918     21.86181     21.86181     21.86181    10448.606   0.21912344 
   97000    1539.3829   -16.529948   -17.723834    1.1938851   -17.052241   -80.087728     21.86181     21.86181     21.86181    10448.606   0.21912344 
   98000    1065.1715   -16.529948   -17.356054   0.82610536   -17.796664   -194.23662     21.86181     21.86181     21.86181    10448.606   0.21912344 
   99000    935.40142   -16.529953   -17.255413   0.72546074   -15.212597    202.00166     21.86181     21.86181     21.86181    10448.606   0.21912344 
  100000     1344.314   -16.529958   -17.572555    1.0425974   -13.555452    456.10705     21.86181     21.86181     21.86181    10448.606   0.21912344 
Loop time of 0.666836 on 4 procs for 50000 steps with 7 atoms

Performance: 3239.179 ns/day, 0.007 hours/ns, 74980.999 timesteps/s
75.3% CPU use with 4 MPI tasks x 1 OpenMP threads

MPI task timing breakdown:
Section |  min time  |  avg time  |  max time  |%varavg| %total
---------------------------------------------------------------
Pair    | 0.22584    | 0.23881    | 0.26564    |   3.2 | 35.81
Neigh   | 0.00013757 | 0.00017625 | 0.00026488 |   0.0 |  0.03
Comm    | 0.22847    | 0.27161    | 0.30059    |   5.2 | 40.73
Output  | 0.0036085  | 0.0037457  | 0.0041289  |   0.4 |  0.56
Modify  | 0.065557   | 0.07519    | 0.087849   |   3.1 | 11.28
Other   |            | 0.0773     |            |       | 11.59

Nlocal:    1.75 ave 5 max 0 min
Histogram: 2 0 0 0 1 0 0 0 0 1
Nghost:    6.75 ave 9 max 3 min
Histogram: 1 0 0 0 0 0 1 0 1 1
Neighs:    5.25 ave 20 max 0 min
Histogram: 3 0 0 0 0 0 0 0 0 1

Total # of neighbors = 21
Ave neighs/atom = 3
Neighbor list builds = 51
Dangerous builds = 0
System init for write_restart ...
Setting up Verlet run ...
  Unit style    : metal
  Current step  : 100000
  Time step     : 0.0005
Per MPI rank memory allocation (min/avg/max) = 3.942 | 4.691 | 4.941 Mbytes
Step Temp TotEng PotEng KinEng Enthalpy Press Volume Lx Ly Lz Density 
  100000     1344.314   -16.529958   -17.572555    1.0425974   -13.555452    456.10705    10448.606     21.86181     21.86181     21.86181   0.21912344 
  101000    607.77665   -17.411721   -17.883089   0.47136778   -18.881338   -225.34934    10448.606     21.86181     21.86181     21.86181   0.21912344 
  102000    782.61931   -16.980894   -17.587863   0.60696891    -16.46416    79.235298    10448.606     21.86181     21.86181     21.86181   0.21912344 
  103000    945.09541   -16.791585   -17.524564   0.73297902   -15.534208    192.80459    10448.606     21.86181     21.86181     21.86181   0.21912344 
  104000    723.56241   -17.334229   -17.895395   0.56116669   -16.980531    54.235561    10448.606     21.86181     21.86181     21.86181   0.21912344 
  105000    761.26077   -17.273853   -17.864257   0.59040406   -18.422729   -176.16726    10448.606     21.86181     21.86181     21.86181   0.21912344 
  106000     1101.643   -16.712052   -17.566443   0.85439118   -16.395381    48.557949    10448.606     21.86181     21.86181     21.86181   0.21912344 
  107000    658.86632    -17.23493   -17.745921   0.51099094   -14.539646    413.29166    10448.606     21.86181     21.86181     21.86181   0.21912344 
  108000    1305.1265   -16.855717   -17.867922    1.0122051   -19.117833   -346.87002    10448.606     21.86181     21.86181     21.86181   0.21912344 
  109000    1018.3576   -16.862101   -17.651899   0.78979832   -15.240195    248.70115    10448.606     21.86181     21.86181     21.86181   0.21912344 
  110000    852.00805   -17.074557   -17.735341    0.6607841    -16.97749    14.884185    10448.606     21.86181     21.86181     21.86181   0.21912344 
  111000    893.48526   -17.246288    -17.93924    0.6929522   -17.394415   -22.713532    10448.606     21.86181     21.86181     21.86181   0.21912344 
  112000    1502.7642   -16.923917   -18.089402    1.1654851   -16.368493    85.167976    10448.606     21.86181     21.86181     21.86181   0.21912344 
  113000    618.76234   -17.066948   -17.546836   0.47988786   -17.680116   -94.022305    10448.606     21.86181     21.86181     21.86181   0.21912344 
  114000    615.78219   -17.203184   -17.680761   0.47757657   -16.063981    174.68399    10448.606     21.86181     21.86181     21.86181   0.21912344 
  115000    1337.0483   -16.281308   -17.318271    1.0369623   -16.373472   -14.132333    10448.606     21.86181     21.86181     21.86181   0.21912344 
  116000    755.95868   -17.509574   -18.095866   0.58629197   -15.627602    288.57933    10448.606     21.86181     21.86181     21.86181   0.21912344 
  117000    790.80361     -17.3181   -17.931417   0.61331634   -18.963871   -252.36041    10448.606     21.86181     21.86181     21.86181   0.21912344 
  118000    1578.0262   -16.754884   -17.978739    1.2238554   -16.140497    94.209332    10448.606     21.86181     21.86181     21.86181   0.21912344 
  119000    960.58871   -16.567997   -17.312992   0.74499502   -19.493275   -448.55854    10448.606     21.86181     21.86181     21.86181   0.21912344 
  120000    1165.7144   -17.031343   -17.935426   0.90408248   -18.116008   -166.32113    10448.606     21.86181     21.86181     21.86181   0.21912344 
  121000     654.0438   -17.174524   -17.681774   0.50725078   -16.835194    52.032427    10448.606     21.86181     21.86181     21.86181   0.21912344 
  122000    1673.4248   -16.422133   -17.719976    1.2978428   -17.306551   -135.61545    10448.606     21.86181     21.86181     21.86181   0.21912344 
  123000    476.16203   -17.360369   -17.729662   0.36929264   -17.141932    33.494813    10448.606     21.86181     21.86181     21.86181   0.21912344 
  124000    687.87915   -17.025183   -17.558675   0.53349215   -14.231311    428.40893    10448.606     21.86181     21.86181     21.86181   0.21912344 
  125000    855.09873    -17.15807   -17.821251   0.66318111   -19.821389   -408.39014    10448.606     21.86181     21.86181     21.86181   0.21912344 
  126000    1923.9168   -16.086962   -17.579076    1.4921146   -12.429931    560.76471    10448.606     21.86181     21.86181     21.86181   0.21912344 
  127000    804.46088   -16.856329   -17.480237   0.62390838   -18.979891   -325.62442    10448.606     21.86181     21.86181     21.86181   0.21912344 
  128000    1621.7853   -16.589318   -17.847111    1.2577932   -15.952802    97.602623    10448.606     21.86181     21.86181     21.86181   0.21912344 
  129000    815.23109   -17.114704   -17.746966   0.63226133   -17.811318   -106.81798    10448.606     21.86181     21.86181     21.86181   0.21912344 
  130000    712.50852   -17.080804   -17.633398   0.55259373   -16.574957    77.565973    10448.606     21.86181     21.86181     21.86181   0.21912344 
  131000    761.77372   -16.743813   -17.334615   0.59080189     -19.0414   -352.30926    10448.606     21.86181     21.86181     21.86181   0.21912344 
  132000    753.02073   -16.908089   -17.492102   0.58401341   -16.356356    84.602004    10448.606     21.86181     21.86181     21.86181   0.21912344 
  133000    1454.0321   -16.308783   -17.436474    1.1276904   -10.731435    855.22385    10448.606     21.86181     21.86181     21.86181   0.21912344 
  134000    674.95022   -17.009651   -17.533116   0.52346498   -19.227208   -340.03741    10448.606     21.86181     21.86181     21.86181   0.21912344 
  135000    618.09118   -17.305407   -17.784774   0.47936733   -16.599016    108.31718    10448.606     21.86181     21.86181     21.86181   0.21912344 
  136000    1666.5913    -16.05947   -17.352013     1.292543   -18.980612   -447.92431    10448.606     21.86181     21.86181     21.86181   0.21912344 
  137000    622.12682   -16.747595   -17.230092   0.48249722   -15.540366    185.11497    10448.606     21.86181     21.86181     21.86181   0.21912344 
  138000    1227.2554   -16.789743   -17.741554   0.95181126   -16.862272   -11.121427    10448.606     21.86181     21.86181     21.86181   0.21912344 
  139000     638.0429   -17.211668   -17.706509   0.49484111    -16.51772    106.40902    10448.606     21.86181     21.86181     21.86181   0.21912344 
  140000    697.16609   -17.184322   -17.725017   0.54069474   -15.059521    325.81441    10448.606     21.86181     21.86181     21.86181   0.21912344 
  141000    987.65237   -16.622809   -17.388794   0.76598453   -16.062887    85.857876    10448.606     21.86181     21.86181     21.86181   0.21912344 
  142000    1101.9863   -16.907676   -17.762333   0.85465742   -15.350612    238.75816    10448.606     21.86181     21.86181     21.86181   0.21912344 
  143000    1266.8652   -16.847095   -17.829626   0.98253109   -18.812012   -301.29802    10448.606     21.86181     21.86181     21.86181   0.21912344 
  144000    1152.5708   -16.375689   -17.269578   0.89388882   -18.325985   -299.05602    10448.606     21.86181     21.86181     21.86181   0.21912344 
  145000    1118.2539   -16.413264   -17.280538   0.86727399   -12.864579      544.151    10448.606     21.86181     21.86181     21.86181   0.21912344 
  146000     923.9626   -16.777527   -17.494117   0.71658924   -18.418245   -251.58569    10448.606     21.86181     21.86181     21.86181   0.21912344 
  147000    969.87963   -17.161144   -17.913344   0.75220069   -15.019094    328.45927    10448.606     21.86181     21.86181     21.86181   0.21912344 
  148000    876.11249   -17.007943   -17.687422   0.67947856   -18.278516   -194.82803    10448.606     21.86181     21.86181     21.86181   0.21912344 
  149000    1085.5479   -16.742302   -17.584211   0.84190845   -17.152442   -62.890265    10448.606     21.86181     21.86181     21.86181   0.21912344 
  150000     724.6645   -17.122467   -17.684489   0.56202143    -16.02698    167.98071    10448.606     21.86181     21.86181     21.86181   0.21912344 
  151000    1105.8177   -16.960133   -17.817762   0.85762897   -15.725512     189.3153    10448.606     21.86181     21.86181     21.86181   0.21912344 
  152000    926.91459   -16.850764   -17.569643   0.71887869   -20.792588   -604.43437    10448.606     21.86181     21.86181     21.86181   0.21912344 
  153000    715.88866   -16.794367   -17.349582   0.55521523   -13.486413    507.23771    10448.606     21.86181     21.86181     21.86181   0.21912344 
  154000    1711.0079   -16.248652   -17.575643    1.3269908   -16.609199   -55.285862    10448.606     21.86181     21.86181     21.86181   0.21912344 
  155000    976.42496   -16.991671   -17.748948   0.75727699     -15.6163    210.89759    10448.606     21.86181     21.86181     21.86181   0.21912344 
  156000    1391.4177   -16.760453   -17.839582    1.0791291   -16.138084    95.433324    10448.606     21.86181     21.86181     21.86181   0.21912344 
  157000    886.38452   -16.940665   -17.628111   0.68744515   -19.690004    -421.5803    10448.606     21.86181     21.86181     21.86181   0.21912344 
  158000    1255.4125   -17.027433   -18.001082    0.9736488   -12.880985    635.81125    10448.606     21.86181     21.86181     21.86181   0.21912344 
  159000    1030.2276   -16.624741   -17.423745   0.79900422   -21.411259   -733.95885    10448.606     21.86181     21.86181     21.86181   0.21912344 
  160000    671.25027   -17.504731   -18.025326   0.52059545    -16.21217    198.19974    10448.606     21.86181     21.86181     21.86181   0.21912344 
  161000     1297.187   -16.608326   -17.614373    1.0060475   -13.772146    434.89639    10448.606     21.86181     21.86181     21.86181   0.21912344 
  162000    1158.5793   -16.472102   -17.370651   0.89854881   -19.951903   -533.58839    10448.606     21.86181     21.86181     21.86181   0.21912344 
  163000    1236.8254   -16.946202   -17.905435   0.95923337   -17.227243   -43.094552    10448.606     21.86181     21.86181     21.86181   0.21912344 
  164000    1345.6784   -17.057855    -18.10151    1.0436555   -16.615831    67.779336    10448.606     21.86181     21.86181     21.86181   0.21912344 
  165000    739.29862   -17.063367   -17.636738   0.57337108   -18.361491    -199.0527    10448.606     21.86181     21.86181     21.86181   0.21912344 
  166000    1010.6433   -16.799409   -17.583224   0.78381538   -14.595979    337.87129    10448.606     21.86181     21.86181     21.86181   0.21912344 
  167000    1144.2488   -16.561851   -17.449286   0.88743463   -19.447723   -442.51612    10448.606     21.86181     21.86181     21.86181   0.21912344 
  168000    1322.2508   -16.679308   -17.704794     1.025486   -15.812456    132.92213    10448.606     21.86181     21.86181     21.86181   0.21912344 
  169000    544.25697   -17.145718   -17.567822   0.42210441   -18.798633   -253.45603    10448.606     21.86181     21.86181     21.86181   0.21912344 
  170000    721.99337   -17.226347   -17.786296   0.55994981    -15.45376     271.8063    10448.606     21.86181     21.86181     21.86181   0.21912344 
  171000    1641.9381   -16.570545   -17.843968    1.2734229   -20.503306   -603.04483    10448.606     21.86181     21.86181     21.86181   0.21912344 
  172000    1519.7279   -16.600143   -17.778784    1.1786415   -17.679987   -165.58199    10448.606     21.86181     21.86181     21.86181   0.21912344 
  173000    1042.3386   -16.630927   -17.439324   0.80839702   -14.309675    355.93791    10448.606     21.86181     21.86181     21.86181   0.21912344 
  174000    1203.9239   -16.740407   -17.674123   0.93371627   -21.359616   -708.30398    10448.606     21.86181     21.86181     21.86181   0.21912344 
  175000    1095.4587   -16.749913   -17.599508    0.8495949   -17.700383    -145.7439    10448.606     21.86181     21.86181     21.86181   0.21912344 
  176000    1223.0517   -16.688871   -17.637422   0.94855104   -13.070729    554.80149    10448.606     21.86181     21.86181     21.86181   0.21912344 
  177000    911.73952   -17.085158   -17.792268   0.70710949   -20.011328   -448.69529    10448.606     21.86181     21.86181     21.86181   0.21912344 
  178000    1209.5371   -16.306787   -17.244857   0.93806966   -15.810853    76.045931    10448.606     21.86181     21.86181     21.86181   0.21912344 
  179000    1156.3968   -16.570371   -17.467227   0.89685609   -13.641246    449.14847    10448.606     21.86181     21.86181     21.86181   0.21912344 
  180000    831.78894   -16.804245   -17.449348   0.64510295   -20.823312    -616.2789    10448.606     21.86181     21.86181     21.86181   0.21912344 
  181000    704.52926   -16.797965    -17.34437   0.54640532   -11.641734    790.65021    10448.606     21.86181     21.86181     21.86181   0.21912344 
  182000    1500.0948   -16.233164   -17.396579    1.1634149   -19.787058   -544.94973    10448.606     21.86181     21.86181     21.86181   0.21912344 
  183000    1057.4691    -16.53242   -17.352552   0.82013165   -13.787789    420.85842    10448.606     21.86181     21.86181     21.86181   0.21912344 
  184000    990.14435   -16.683472   -17.451389   0.76791721   -17.178135   -75.851024    10448.606     21.86181     21.86181     21.86181   0.21912344 
  185000    832.40562   -16.940586   -17.586167   0.64558123   -19.271632   -357.43979    10448.606     21.86181     21.86181     21.86181   0.21912344 
  186000    1319.7571   -16.354164   -17.377716     1.023552   -13.529286    433.16342    10448.606     21.86181     21.86181     21.86181   0.21912344 
  187000     410.2182   -17.182278   -17.500428   0.31814918   -19.772158   -397.12901    10448.606     21.86181     21.86181     21.86181   0.21912344 
  188000    1856.7044   -16.394616   -17.834604    1.4399873    -14.48971    292.09609    10448.606     21.86181     21.86181     21.86181   0.21912344 
  189000    1021.2323   -17.204116   -17.996144   0.79202782   -17.959032   -115.75788    10448.606     21.86181     21.86181     21.86181   0.21912344 
  190000     337.7566   -17.328999    -17.59095    0.2619508   -18.539972   -185.68918    10448.606     21.86181     21.86181     21.86181   0.21912344 
  191000    1443.0137   -16.418031   -17.537176     1.119145   -15.905557    78.582163    10448.606     21.86181     21.86181     21.86181   0.21912344 
  192000    479.52961   -16.976237   -17.348141    0.3719044   -17.842919    -132.8959    10448.606     21.86181     21.86181     21.86181   0.21912344 
  193000    962.93332   -16.927489   -17.674303    0.7468134   -13.194027    572.48458    10448.606     21.86181     21.86181     21.86181   0.21912344 
  194000    421.03943   -17.434626   -17.761168   0.32654171   -19.808444    -363.9984    10448.606     21.86181     21.86181     21.86181   0.21912344 
  195000    1257.9645   -16.709794   -17.685422   0.97562803   -14.533389    333.72732    10448.606     21.86181     21.86181     21.86181   0.21912344 
  196000    613.81066   -17.073237   -17.549284   0.47604753   -18.875229   -276.31532    10448.606     21.86181     21.86181     21.86181   0.21912344 
  197000    646.52648   -17.277362   -17.778783   0.50142064   -17.041685    36.138495    10448.606     21.86181     21.86181     21.86181   0.21912344 
  198000    1528.9103    -16.79453   -17.980293     1.185763   -14.796303    306.40568    10448.606     21.86181     21.86181     21.86181   0.21912344 
  199000    418.07462   -17.281224   -17.605466   0.32424232   -19.326035   -313.54886    10448.606     21.86181     21.86181     21.86181   0.21912344 
  200000    1284.7703    -17.03944   -18.035857   0.99641755   -14.859367     334.2897    10448.606     21.86181     21.86181     21.86181   0.21912344 
  201000    2059.7444   -16.206365   -17.803822    1.5974572   -20.143407   -603.70127    10448.606     21.86181     21.86181     21.86181   0.21912344 
  202000    804.35072   -16.954269   -17.578092   0.62382295   -16.007117    145.23507    10448.606     21.86181     21.86181     21.86181   0.21912344 
  203000    869.39562   -16.878302   -17.552571   0.67426922   -19.863351   -457.72377    10448.606     21.86181     21.86181     21.86181   0.21912344 
  204000    1022.6306   -16.538934   -17.332046   0.79311225   -16.965148    -65.35507    10448.606     21.86181     21.86181     21.86181   0.21912344 
  205000    1624.3761   -16.507849   -17.767651    1.2598025     -16.5173   -1.4492212    10448.606     21.86181     21.86181     21.86181   0.21912344 
  206000    2241.2595   -16.065399   -17.803632    1.7382332   -16.772225   -108.38385    10448.606     21.86181     21.86181     21.86181   0.21912344 
  207000    977.82226   -16.899542   -17.657903   0.75836068   -19.422491   -386.86588    10448.606     21.86181     21.86181     21.86181   0.21912344 
  208000    1212.9094   -16.791325    -17.73201   0.94068505   -13.813459    456.62226    10448.606     21.86181     21.86181     21.86181   0.21912344 
  209000     912.4367   -17.030447   -17.738098    0.7076502   -18.617702   -243.38767    10448.606     21.86181     21.86181     21.86181   0.21912344 
  210000    922.19881   -16.494932   -17.210153   0.71522131   -18.898223   -368.51782    10448.606     21.86181     21.86181     21.86181   0.21912344 
  211000    841.04142   -17.014088   -17.666367   0.65227881   -13.691588    509.46805    10448.606     21.86181     21.86181     21.86181   0.21912344 
  212000    1105.0568   -17.136598   -17.993637   0.85703884   -17.959449   -126.17502    10448.606     21.86181     21.86181     21.86181   0.21912344 
  213000    1307.6412   -16.813253   -17.827408    1.0141554    -17.30717   -75.736655    10448.606     21.86181     21.86181     21.86181   0.21912344 
  214000    446.97958   -17.386541   -17.733201   0.34665987   -16.704625    104.56417    10448.606     21.86181     21.86181     21.86181   0.21912344 
  215000    910.72042    -17.37359   -18.079909   0.70631912   -14.300301    471.25432    10448.606     21.86181     21.86181     21.86181   0.21912344 
  216000    632.97462    -16.76526    -17.25617   0.49091034   -20.826637   -622.76666    10448.606     21.86181     21.86181     21.86181   0.21912344 
  217000    1352.6361   -16.330498    -17.37955    1.0490516    -13.17876    483.28373    10448.606     21.86181     21.86181     21.86181   0.21912344 
  218000    1971.0099   -15.848341    -17.37698    1.5286382    -21.77271   -908.43551    10448.606     21.86181     21.86181     21.86181   0.21912344 
  219000    843.26202   -16.981272   -17.635273   0.65400103   -18.989226   -307.89729    10448.606     21.86181     21.86181     21.86181   0.21912344 
  220000    1003.4673    -17.06304    -17.84129   0.77824994   -12.364734    720.43254    10448.606     21.86181     21.86181     21.86181   0.21912344 
  221000    852.16838   -17.211818   -17.872727   0.66090845   -21.441392   -648.55769    10448.606     21.86181     21.86181     21.86181   0.21912344 
  222000    770.03799   -17.139739    -17.73695   0.59721133    -12.50394    710.84777    10448.606     21.86181     21.86181     21.86181   0.21912344 
  223000    671.44044   -17.371005   -17.891748   0.52074293   -17.375323   -0.6621545    10448.606     21.86181     21.86181     21.86181   0.21912344 
  224000    628.68944   -17.135119   -17.622706   0.48758693   -19.154412   -309.63595    10448.606     21.86181     21.86181     21.86181   0.21912344 
  225000    399.38711    -17.38728   -17.697029   0.30974902   -11.584941    889.72366    10448.606     21.86181     21.86181     21.86181   0.21912344 
  226000    783.29817   -17.375417   -17.982912   0.60749541   -18.469485   -167.76314    10448.606     21.86181     21.86181     21.86181   0.21912344 
  227000     938.6765   -16.828016   -17.556017   0.72800076   -14.635095    336.25986    10448.606     21.86181     21.86181     21.86181   0.21912344 
  228000    951.30666   -16.617632   -17.355428   0.73779622   -16.669825   -8.0032835    10448.606     21.86181     21.86181     21.86181   0.21912344 
  229000    388.23121   -17.320026   -17.621123   0.30109694    -17.09273    34.853365    10448.606     21.86181     21.86181     21.86181   0.21912344 
  230000    610.86707   -16.836411   -17.310176    0.4737646   -15.425437     216.3571    10448.606     21.86181     21.86181     21.86181   0.21912344 
  231000    610.20985   -17.161262   -17.634517   0.47325488   -16.223815    143.74707    10448.606     21.86181     21.86181     21.86181   0.21912344 
  232000    1446.4012   -16.408163   -17.529935    1.1217721   -13.327106    472.44556    10448.606     21.86181     21.86181     21.86181   0.21912344 
  233000    274.50953   -17.321197   -17.534096   0.21289885   -18.336806   -155.73227    10448.606     21.86181     21.86181     21.86181   0.21912344 
  234000    1637.0739   -16.672103   -17.941754    1.2696505   -16.666948   0.79050311    10448.606     21.86181     21.86181     21.86181   0.21912344 
  235000    798.15815   -17.148232   -17.767252   0.61902023   -16.698311    68.990263    10448.606     21.86181     21.86181     21.86181   0.21912344 
  236000    494.70992    -16.81791   -17.201588   0.38367766   -19.483425   -408.72679    10448.606     21.86181     21.86181     21.86181   0.21912344 
  237000    996.24963   -16.694111   -17.466764   0.77265223    -15.31457    211.53713    10448.606     21.86181     21.86181     21.86181   0.21912344 
  238000    1145.3822    -16.74399   -17.632304    0.8883136   -20.342757    -551.8306    10448.606     21.86181     21.86181     21.86181   0.21912344 
  239000    897.39189   -16.747869   -17.443851   0.69598203   -15.466016    196.55774    10448.606     21.86181     21.86181     21.86181   0.21912344 
  240000     1311.659   -16.529983   -17.547255    1.0172714   -17.712743   -181.36291    10448.606     21.86181     21.86181     21.86181   0.21912344 
  241000    906.22292   -16.917315   -17.620146   0.70283104   -16.477121    67.498771    10448.606     21.86181     21.86181     21.86181   0.21912344 
  242000    759.65844   -16.978413   -17.567575   0.58916136   -16.820939    24.146964    10448.606     21.86181     21.86181     21.86181   0.21912344 
  243000    857.60385   -16.365697   -17.030821   0.66512399     -18.4743   -323.33053    10448.606     21.86181     21.86181     21.86181   0.21912344 
  244000    1281.0173    -16.45315   -17.446657   0.99350691   -16.698284   -37.588531    10448.606     21.86181     21.86181     21.86181   0.21912344 
  245000    492.29605    -17.03217   -17.413975   0.38180555   -15.284868    267.92915    10448.606     21.86181     21.86181     21.86181   0.21912344 
  246000    2007.4989     -15.9964   -17.553338    1.5569376   -16.393944   -60.958959    10448.606     21.86181     21.86181     21.86181   0.21912344 
  247000    1333.8367   -16.258174   -17.292646    1.0344715   -16.408374   -23.031399    10448.606     21.86181     21.86181     21.86181   0.21912344 
  248000    717.01449   -17.436247   -17.992335   0.55608838   -18.886564   -222.38996    10448.606     21.86181     21.86181     21.86181   0.21912344 
  249000    716.18191   -17.199597   -17.755039   0.55544267   -15.009902    335.76512    10448.606     21.86181     21.86181     21.86181   0.21912344 
  250000    1171.7197   -16.850637   -17.759377   0.90873997   -19.336387    -381.1619    10448.606     21.86181     21.86181     21.86181   0.21912344 
  251000    610.76702   -16.891996   -17.365683     0.473687   -17.547942   -100.58188    10448.606     21.86181     21.86181     21.86181   0.21912344 
  252000    991.97498   -16.815368   -17.584705   0.76933698   -14.969778     283.0005    10448.606     21.86181     21.86181     21.86181   0.21912344 
  253000     544.8688   -17.015469   -17.438048   0.42257892   -20.001751   -457.91283    10448.606     21.86181     21.86181     21.86181   0.21912344 
  254000    1095.3718   -16.806475   -17.656003   0.84952751   -17.645073   -128.58948    10448.606     21.86181     21.86181     21.86181   0.21912344 
  255000    1898.1967   -16.255224   -17.727391    1.4721671   -13.638995    401.16943    10448.606     21.86181     21.86181     21.86181   0.21912344 
  256000    634.72428   -17.222944   -17.715211   0.49226732   -21.205321   -610.65281    10448.606     21.86181     21.86181     21.86181   0.21912344 
  257000     558.4935   -17.751533   -18.184679    0.4331457   -16.179144    241.10826    10448.606     21.86181     21.86181     21.86181   0.21912344 
  258000    1037.4701   -17.012239   -17.816861    0.8046212    -15.90474    169.82267    10448.606     21.86181     21.86181     21.86181   0.21912344 
  259000    425.46445   -17.197395   -17.527368   0.32997358    -17.00497    29.506257    10448.606     21.86181     21.86181     21.86181   0.21912344 
  260000    830.60165   -16.746765   -17.390947   0.64418214   -13.778996    455.07417    10448.606     21.86181     21.86181     21.86181   0.21912344 
  261000    801.14841   -16.677341    -17.29868   0.62133936   -17.768013   -167.24232    10448.606     21.86181     21.86181     21.86181   0.21912344 
  262000    1421.4471   -16.626979   -17.729398    1.1024188   -15.428344    183.79718    10448.606     21.86181     21.86181     21.86181   0.21912344 
  263000    980.56081   -17.002331   -17.762816   0.76048459   -18.400299   -214.36272    10448.606     21.86181     21.86181     21.86181   0.21912344 
  264000    925.37556   -16.883689   -17.601374   0.71768507   -16.832643    7.8273436    10448.606     21.86181     21.86181     21.86181   0.21912344 
  265000    1626.2545   -16.132801    -17.39406    1.2612593   -18.117849   -304.38491    10448.606     21.86181     21.86181     21.86181   0.21912344 
  266000    483.92618   -17.516756    -17.89207   0.37531421   -18.253342   -112.94719    10448.606     21.86181     21.86181     21.86181   0.21912344 
  267000    1304.7353   -16.748753   -17.760655    1.0119016   -19.403086   -407.01217    10448.606     21.86181     21.86181     21.86181   0.21912344 
  268000    1079.1021   -17.020869   -17.857778   0.83690937   -16.086539    143.26906    10448.606     21.86181     21.86181     21.86181   0.21912344 
  269000    983.56621   -16.659536   -17.422351   0.76281547   -16.648037    1.7633029    10448.606     21.86181     21.86181     21.86181   0.21912344 
  270000    908.19917   -17.271526   -17.975889   0.70436373   -13.723747    544.01211    10448.606     21.86181     21.86181     21.86181   0.21912344 
  271000    630.42587   -17.014588   -17.503522   0.48893364   -18.869947   -284.49836    10448.606     21.86181     21.86181     21.86181   0.21912344 
  272000    1182.6699   -16.976307    -17.89354   0.91723253   -14.983693    305.54495    10448.606     21.86181     21.86181     21.86181   0.21912344 
  273000    1097.4319   -16.978698   -17.829823   0.85112523   -19.589297     -400.306    10448.606     21.86181     21.86181     21.86181   0.21912344 
  274000    1640.2814   -16.602597   -17.874735    1.2721381   -17.888829   -197.22933    10448.606     21.86181     21.86181     21.86181   0.21912344 
  275000    553.14362   -17.359647   -17.788644   0.42899655   -17.105096    39.032573    10448.606     21.86181     21.86181     21.86181   0.21912344 
  276000    1216.2278   -16.814178   -17.757437   0.94325867   -19.882534   -470.49801    10448.606     21.86181     21.86181     21.86181   0.21912344 
  277000    1348.4124   -16.653553   -17.699329    1.0457759   -18.096008   -221.18428    10448.606     21.86181     21.86181     21.86181   0.21912344 
  278000    401.25762   -17.659092   -17.970292   0.31119971   -16.929227    111.91655    10448.606     21.86181     21.86181     21.86181   0.21912344 
  279000    788.25591    -17.30862    -17.91996   0.61134044   -19.404908   -321.44226    10448.606     21.86181     21.86181     21.86181   0.21912344 
  280000    712.95131   -17.340662   -17.893599   0.55293713   -15.068543    348.40398    10448.606     21.86181     21.86181     21.86181   0.21912344 
  281000    598.15942   -17.379626   -17.843535   0.46390904   -18.544341   -178.59611    10448.606     21.86181     21.86181     21.86181   0.21912344 
  282000    529.06278   -16.822953   -17.233274   0.41032039   -15.898055    141.82282    10448.606     21.86181     21.86181     21.86181   0.21912344 
  283000    2318.6726   -15.886357   -17.684628    1.7982717   -15.492087    60.456776    10448.606     21.86181     21.86181     21.86181   0.21912344 
  284000    696.54566   -17.379315   -17.919529   0.54021356   -19.100565   -263.93436    10448.606     21.86181     21.86181     21.86181   0.21912344 
  285000    1284.7755   -16.915411   -17.911833   0.99642162   -12.800802    630.92919    10448.606     21.86181     21.86181     21.86181   0.21912344 
  286000    737.12706   -17.377065   -17.948752    0.5716869   -19.747976   -363.55255    10448.606     21.86181     21.86181     21.86181   0.21912344 
  287000     529.9624   -17.022982      -17.434    0.4110181   -16.049063    149.33957    10448.606     21.86181     21.86181     21.86181   0.21912344 
  288000    893.08515   -16.988718    -17.68136   0.69264189    -15.35719    250.17654    10448.606     21.86181     21.86181     21.86181   0.21912344 
  289000    953.42919   -17.103801   -17.843244   0.73944237   -20.674384   -547.50884    10448.606     21.86181     21.86181     21.86181   0.21912344 
  290000    928.79486   -16.876245   -17.596582   0.72033695   -12.571846    660.03122    10448.606     21.86181     21.86181     21.86181   0.21912344 
  291000    943.36702   -17.282751    -18.01439   0.73163855    -16.90704    57.611154    10448.606     21.86181     21.86181     21.86181   0.21912344 
  292000    528.74267   -17.517293   -17.927366   0.41007213   -16.944429    87.842369    10448.606     21.86181     21.86181     21.86181   0.21912344 
  293000    983.55504    -17.26048   -18.023287    0.7628068   -18.045247   -120.33522    10448.606     21.86181     21.86181     21.86181   0.21912344 
  294000    846.98556   -17.260211     -17.9171   0.65688885   -16.691328    87.231763    10448.606     21.86181     21.86181     21.86181   0.21912344 
  295000     986.9783   -17.347174   -18.112636   0.76546175   -18.495192   -176.03573    10448.606     21.86181     21.86181     21.86181   0.21912344 
  296000    693.69385     -17.1948   -17.732802   0.53800181   -17.178453    2.5065699    10448.606     21.86181     21.86181     21.86181   0.21912344 
  297000    1430.9675   -16.505404   -17.615206    1.1098024   -19.464874   -453.80157    10448.606     21.86181     21.86181     21.86181   0.21912344 
  298000     1037.178   -16.957239   -17.761634   0.80439464   -18.747574   -274.52777    10448.606     21.86181     21.86181     21.86181   0.21912344 
  299000    1439.1703   -16.728598   -17.844762    1.1161642   -15.266366    224.21687    10448.606     21.86181     21.86181     21.86181   0.21912344 
  300000    812.94051   -17.316839   -17.947324   0.63048485   -18.314416   -152.96719    10448.606     21.86181     21.86181     21.86181   0.21912344 
  301000    918.08136   -17.405219   -18.117247   0.71202798   -15.360415    313.54778    10448.606     21.86181     21.86181     21.86181   0.21912344 
  302000     645.8959   -17.271254   -17.772185   0.50093159   -15.671787    245.26034    10448.606     21.86181     21.86181     21.86181   0.21912344 
  303000    454.23372    -17.36208   -17.714365    0.3522859   -19.588297   -341.36554    10448.606     21.86181     21.86181     21.86181   0.21912344 
  304000      889.967   -17.218791   -17.909014   0.69022358   -13.501319    570.03256    10448.606     21.86181     21.86181     21.86181   0.21912344 
  305000    1173.7907   -17.019049   -17.929395   0.91034614   -16.507398    78.455951    10448.606     21.86181     21.86181     21.86181   0.21912344 
  306000    605.64048   -17.170832   -17.640543   0.46971106   -21.377416   -645.03242    10448.606     21.86181     21.86181     21.86181   0.21912344 
  307000     983.7732   -16.922328   -17.685304     0.762976    -12.27834    712.10348    10448.606     21.86181     21.86181     21.86181   0.21912344 
  308000    1119.0946   -16.810423   -17.678349   0.86792597   -20.742259   -602.90298    10448.606     21.86181     21.86181     21.86181   0.21912344 
  309000    957.29418   -17.044392   -17.786832   0.74243991    -14.50583    389.25996    10448.606     21.86181     21.86181     21.86181   0.21912344 
  310000    694.53706   -17.308351   -17.847006   0.53865577   -18.382156     -164.656    10448.606     21.86181     21.86181     21.86181   0.21912344 
  311000    906.01115   -17.054163    -17.75683   0.70266679   -18.863175   -277.39175    10448.606     21.86181     21.86181     21.86181   0.21912344 
  312000    1077.4497   -17.027942    -17.86357    0.8356278   -15.606316    217.99046    10448.606     21.86181     21.86181     21.86181   0.21912344 
  313000     858.7961   -17.151299   -17.817348   0.66604865   -19.296575   -328.95394    10448.606     21.86181     21.86181     21.86181   0.21912344 
  314000    488.76848   -17.465441   -17.844511   0.37906971   -17.279307    28.541669    10448.606     21.86181     21.86181     21.86181   0.21912344 
  315000     1678.838   -16.628637   -17.930678    1.3020411   -17.638323     -154.824    10448.606     21.86181     21.86181     21.86181   0.21912344 
  316000    749.23815   -17.025593   -17.606673   0.58107979   -17.349224   -49.625245    10448.606     21.86181     21.86181     21.86181   0.21912344 
  317000    1094.9948   -16.986656   -17.835892   0.84923514   -14.069988    447.23833    10448.606     21.86181     21.86181     21.86181   0.21912344 
  318000    468.07983   -17.407058   -17.770082    0.3630244   -20.129311   -417.42699    10448.606     21.86181     21.86181     21.86181   0.21912344 
  319000    491.52353    -17.17362   -17.554826   0.38120641   -15.531038    251.87151    10448.606     21.86181     21.86181     21.86181   0.21912344 
  320000    1159.0598   -16.908748   -17.807669   0.89892146    -19.24897   -358.84685    10448.606     21.86181     21.86181     21.86181   0.21912344 
  321000    906.66589   -17.228123   -17.931297   0.70317458   -19.092376   -285.86229    10448.606     21.86181     21.86181     21.86181   0.21912344 
  322000    711.60455   -16.860966   -17.412859   0.55189264   -16.569658    44.668888    10448.606     21.86181     21.86181     21.86181   0.21912344 
  323000    997.13732   -16.918851   -17.692192   0.77334069   -17.516826   -91.692763    10448.606     21.86181     21.86181     21.86181   0.21912344 
  324000    608.04464   -17.338637   -17.810213   0.47157563   -14.867428    378.93213    10448.606     21.86181     21.86181     21.86181   0.21912344 
  325000    606.71402   -17.212557   -17.683101   0.47054365   -21.110189   -597.65808    10448.606     21.86181     21.86181     21.86181   0.21912344 
  326000    1482.2032   -17.017167   -18.166706    1.1495388   -15.933125    166.22572    10448.606     21.86181     21.86181     21.86181   0.21912344 
  327000     991.3867   -17.231385   -18.000266   0.76888074   -16.010575    187.19758    10448.606     21.86181     21.86181     21.86181   0.21912344 
  328000    939.28725    -17.05237   -17.780845   0.72847444   -20.398535   -513.09678    10448.606     21.86181     21.86181     21.86181   0.21912344 
  329000    704.05988   -16.781228   -17.327269    0.5460413   -15.024148    269.42848    10448.606     21.86181     21.86181     21.86181   0.21912344 
  330000    1164.5612   -16.356903   -17.260091   0.90318809   -20.112963   -575.94971    10448.606     21.86181     21.86181     21.86181   0.21912344 
  331000    314.05348   -16.903384   -17.146952   0.24356759   -14.029184    440.72641    10448.606     21.86181     21.86181     21.86181   0.21912344 
  332000    842.31663   -16.913858   -17.567126   0.65326782   -19.319821   -368.92748    10448.606     21.86181     21.86181     21.86181   0.21912344 
  333000    1110.3555   -17.054465   -17.915613   0.86114831   -18.415801   -208.74563    10448.606     21.86181     21.86181     21.86181   0.21912344 
  334000    2112.2906   -16.015771   -17.653981      1.63821     -18.1057   -320.46718    10448.606     21.86181     21.86181     21.86181   0.21912344 
  335000    492.94797   -17.464751   -17.847062   0.38231115   -18.799396    -204.6529    10448.606     21.86181     21.86181     21.86181   0.21912344 
  336000    1516.8953   -16.841507   -18.017951    1.1764446   -12.309213    694.97642    10448.606     21.86181     21.86181     21.86181   0.21912344 
  337000    830.08108   -17.243867   -17.887645   0.64377841    -19.72649   -380.68244    10448.606     21.86181     21.86181     21.86181   0.21912344 
  338000    809.93662    -17.42115   -18.049305   0.62815515   -16.895579    80.590359    10448.606     21.86181     21.86181     21.86181   0.21912344 
  339000    822.59033   -17.098988   -17.736957   0.63796887   -15.654615     221.4784    10448.606     21.86181     21.86181     21.86181   0.21912344 
  340000    1110.4921   -16.909255    -17.77051   0.86125423   -18.480696   -240.96281    10448.606     21.86181     21.86181     21.86181   0.21912344 
  341000    556.09444   -17.361178   -17.792463   0.43128509   -16.349303    155.15969    10448.606     21.86181     21.86181     21.86181   0.21912344 
  342000    936.35181    -17.18757   -17.913768   0.72619782   -18.214275   -157.43374    10448.606     21.86181     21.86181     21.86181   0.21912344 
  343000     1056.576   -16.555933   -17.375372   0.81943901   -15.430816     172.5241    10448.606     21.86181     21.86181     21.86181   0.21912344 
  344000    653.57129   -17.016652   -17.523537   0.50688432   -17.350753   -51.230614    10448.606     21.86181     21.86181     21.86181   0.21912344 
  345000        805.4   -16.881507   -17.506143   0.62463672   -18.470315   -243.62599    10448.606     21.86181     21.86181     21.86181   0.21912344 
  346000     1168.101   -16.590786   -17.496719   0.90593344   -16.438909    23.288718    10448.606     21.86181     21.86181     21.86181   0.21912344 
  347000    632.87616   -17.606048   -18.096882   0.49083399    -17.95611   -53.678055    10448.606     21.86181     21.86181     21.86181   0.21912344 
  348000    817.70725   -17.387526   -18.021708   0.63418175   -18.552158   -178.58315    10448.606     21.86181     21.86181     21.86181   0.21912344 
  349000    849.45882   -16.985768   -17.644575   0.65880702   -14.186681    429.20861    10448.606     21.86181     21.86181     21.86181   0.21912344 
  350000     1190.754   -17.046779   -17.970281   0.92350219   -16.296167    115.09791    10448.606     21.86181     21.86181     21.86181   0.21912344 
  351000    1172.7083   -16.257663    -17.16717   0.90950663   -17.652844   -213.93536    10448.606     21.86181     21.86181     21.86181   0.21912344 
  352000    1227.3305   -16.984722   -17.936592   0.95186947   -16.922728    9.5061462    10448.606     21.86181     21.86181     21.86181   0.21912344 
  353000    453.06244   -17.720446   -18.071823    0.3513775   -16.624785     168.0073    10448.606     21.86181     21.86181     21.86181   0.21912344 
  354000    700.21975    -17.28897   -17.832033   0.54306304   -21.089571    -582.7795    10448.606     21.86181     21.86181     21.86181   0.21912344 
  355000    1161.8923   -16.778309   -17.679427   0.90111819   -13.682739    474.67098    10448.606     21.86181     21.86181     21.86181   0.21912344 
  356000    319.04478   -17.339729   -17.587168   0.24743864   -18.067771   -111.63706    10448.606     21.86181     21.86181     21.86181   0.21912344 
  357000    1904.3842   -16.573706   -18.050672    1.4769658   -16.298111    42.259482    10448.606     21.86181     21.86181     21.86181   0.21912344 
  358000    1228.5548   -16.892537   -17.845356   0.95281906    -17.32082   -65.672421    10448.606     21.86181     21.86181     21.86181   0.21912344 
  359000    982.04635   -17.164644   -17.926281   0.76163672   -17.723507   -85.695308    10448.606     21.86181     21.86181     21.86181   0.21912344 
  360000    1210.5348   -16.798571   -17.737415   0.93884344   -17.147357   -53.482407    10448.606     21.86181     21.86181     21.86181   0.21912344 
  361000    1021.3842   -16.907766   -17.699911   0.79214563   -18.947845   -312.82332    10448.606     21.86181     21.86181     21.86181   0.21912344 
  362000      863.444   -17.089896    -17.75955   0.66965338   -15.387907      260.981    10448.606     21.86181     21.86181     21.86181   0.21912344 
  363000    736.46135    -17.52955   -18.100721   0.57117061   -19.043757   -232.18668    10448.606     21.86181     21.86181     21.86181   0.21912344 
  364000    592.49921   -17.491734   -17.951254    0.4595192   -17.166735    49.834968    10448.606     21.86181     21.86181     21.86181   0.21912344 
  365000    1393.9511   -16.978382   -18.059476    1.0810939    -18.58145   -245.81252    10448.606     21.86181     21.86181     21.86181   0.21912344 
  366000     873.8693   -17.534082   -18.211821   0.67773883   -18.845945   -201.15957    10448.606     21.86181     21.86181     21.86181   0.21912344 
  367000    1732.3454   -16.522798   -17.866337    1.3435393   -15.740665    119.93135    10448.606     21.86181     21.86181     21.86181   0.21912344 
  368000    881.75601   -17.079031   -17.762886   0.68385545   -18.898167   -278.94425    10448.606     21.86181     21.86181     21.86181   0.21912344 
  369000    617.89144   -17.300921   -17.780134   0.47921242   -17.682439     -58.5014    10448.606     21.86181     21.86181     21.86181   0.21912344 
  370000    874.80554   -17.404623   -18.083088   0.67846495   -15.837607    240.28438    10448.606     21.86181     21.86181     21.86181   0.21912344 
  371000    749.35804   -17.075677   -17.656849   0.58117278   -17.401143   -49.906559    10448.606     21.86181     21.86181     21.86181   0.21912344 
  372000    699.03702   -17.382951   -17.925096   0.54214576   -17.074634    47.276967    10448.606     21.86181     21.86181     21.86181   0.21912344 
  373000    748.23369   -17.465895   -18.046196   0.58030077   -20.244203    -426.0224    10448.606     21.86181     21.86181     21.86181   0.21912344 
  374000    1062.1749   -17.109868   -17.933649   0.82378129   -14.142635    454.99187    10448.606     21.86181     21.86181     21.86181   0.21912344 
  375000    894.88026   -16.993062   -17.687096   0.69403412   -18.165655   -179.80403    10448.606     21.86181     21.86181     21.86181   0.21912344 
  376000    752.98741   -17.547159   -18.131147   0.58398757    -19.14947   -245.69632    10448.606     21.86181     21.86181     21.86181   0.21912344 
  377000    1193.9266   -17.113968   -18.039931   0.92596277   -16.274713    128.69038    10448.606     21.86181     21.86181     21.86181   0.21912344 
  378000    650.92999   -17.595104    -18.09994   0.50483583   -20.927753   -511.02431    10448.606     21.86181     21.86181     21.86181   0.21912344 
  379000    1344.2175   -17.119995   -18.162517    1.0425225   -12.854672    654.03949    10448.606     21.86181     21.86181     21.86181   0.21912344 
  380000    911.96271   -17.165036   -17.872318    0.7072826   -18.963245   -275.73524    10448.606     21.86181     21.86181     21.86181   0.21912344 
  381000    810.72907   -17.453989   -18.082758   0.62876974    -18.92366   -225.35757    10448.606     21.86181     21.86181     21.86181   0.21912344 
  382000    1015.3899   -17.143734    -17.93123   0.78749666   -12.453937    719.12777    10448.606     21.86181     21.86181     21.86181   0.21912344 
  383000    368.28381   -17.662866   -17.948493   0.28562651    -20.11807   -376.47801    10448.606     21.86181     21.86181     21.86181   0.21912344 
  384000    1306.3077   -16.819511   -17.832632    1.0131212   -14.656708    331.64156    10448.606     21.86181     21.86181     21.86181   0.21912344 
  385000    548.15602   -17.380096   -17.805224   0.42512836   -18.582622   -184.39391    10448.606     21.86181     21.86181     21.86181   0.21912344 
  386000    1236.4171   -17.111649   -18.070566   0.95891672   -18.961134    -283.5978    10448.606     21.86181     21.86181     21.86181   0.21912344 
  387000    839.04335   -17.175114   -17.825844   0.65072919   -16.577936    91.570533    10448.606     21.86181     21.86181     21.86181   0.21912344 
  388000    581.66785   -17.334314   -17.785432   0.45111882   -17.588904   -39.038606    10448.606     21.86181     21.86181     21.86181   0.21912344 
  389000    1564.7747   -16.936597   -18.150175     1.213578   -16.235508    107.50411    10448.606     21.86181     21.86181     21.86181   0.21912344 
  390000    590.65688   -17.423717   -17.881807   0.45809036   -19.333876   -292.90151    10448.606     21.86181     21.86181     21.86181   0.21912344 
  391000    1087.8588   -16.954304   -17.798005   0.84370075   -16.649046    46.807835    10448.606     21.86181     21.86181     21.86181   0.21912344 
  392000    789.95664   -17.362141     -17.9748   0.61265946   -18.016992   -100.41409    10448.606     21.86181     21.86181     21.86181   0.21912344 
  393000    781.40393   -17.470727   -18.076753   0.60602631   -15.064669    368.94203    10448.606     21.86181     21.86181     21.86181   0.21912344 
  394000    637.39646   -17.460968   -17.955308   0.49433975   -18.387518   -142.07609    10448.606     21.86181     21.86181     21.86181   0.21912344 
  395000    918.09643   -17.080214   -17.792254   0.71203967   -17.013254    10.267483    10448.606     21.86181     21.86181     21.86181   0.21912344 
  396000    1234.8221   -17.205375   -18.163054   0.95767974   -18.463534   -192.92464    10448.606     21.86181     21.86181     21.86181   0.21912344 
  397000    652.11635    -17.50741   -18.013166   0.50575593   -17.265414    37.107362    10448.606     21.86181     21.86181     21.86181   0.21912344 
  398000    996.42604   -17.002503   -17.775292   0.77278904   -15.259997    267.19383    10448.606     21.86181     21.86181     21.86181   0.21912344 
  399000    688.51372   -17.314347   -17.848331    0.5339843   -18.486298   -179.70552    10448.606     21.86181     21.86181     21.86181   0.21912344 
  400000    542.47472   -17.762784   -18.183507   0.42072217   -16.627585    174.07004    10448.606     21.86181     21.86181     21.86181   0.21912344 
  401000    919.70484   -17.362508   -18.075795   0.71328709   -17.530992   -25.835061    10448.606     21.86181     21.86181     21.86181   0.21912344 
  402000    975.73949   -17.294377   -18.051122   0.75674537   -17.646066   -53.927632    10448.606     21.86181     21.86181     21.86181   0.21912344 
  403000    603.20123   -17.626556   -18.094375   0.46781927   -16.909157    110.00506    10448.606     21.86181     21.86181     21.86181   0.21912344 
  404000    976.47918   -17.206767   -17.964086   0.75731904   -15.156411     314.3992    10448.606     21.86181     21.86181     21.86181   0.21912344 
  405000    760.33791   -17.411146   -18.000834   0.58968833   -19.655208   -344.10182    10448.606     21.86181     21.86181     21.86181   0.21912344 
  406000    612.88275   -17.512765   -17.988093   0.47532788   -15.236074    349.10495    10448.606     21.86181     21.86181     21.86181   0.21912344 
  407000    1067.3971   -17.037834   -17.865665   0.82783143   -16.503938    81.866888    10448.606     21.86181     21.86181     21.86181   0.21912344 
  408000    584.81325    -17.23259   -17.686148   0.45355827   -20.017356   -427.01268    10448.606     21.86181     21.86181     21.86181   0.21912344 
  409000    472.59858   -17.395036   -17.761565   0.36652897   -15.891919    230.48625    10448.606     21.86181     21.86181     21.86181   0.21912344 
  410000    629.85273   -17.372076   -17.860566   0.48848913   -14.916029    376.60729    10448.606     21.86181     21.86181     21.86181   0.21912344 
  411000    840.77586   -17.216189   -17.868262   0.65207286   -18.709923   -229.04741    10448.606     21.86181     21.86181     21.86181   0.21912344 
  412000      514.926   -17.171202   -17.570559   0.39935646   -14.882699    350.91632    10448.606     21.86181     21.86181     21.86181   0.21912344 
  413000    1185.1424   -16.618034   -17.537184   0.91915009   -19.642529   -463.77235    10448.606     21.86181     21.86181     21.86181   0.21912344 
  414000    354.90769   -17.444381   -17.719634   0.27525252   -15.995699    222.13914    10448.606     21.86181     21.86181     21.86181   0.21912344 
  415000    957.24699   -17.236699   -17.979103   0.74240331   -18.409681   -179.86361    10448.606     21.86181     21.86181     21.86181   0.21912344 
  416000    887.07408   -16.948082   -17.636062   0.68797994   -17.111254   -25.020596    10448.606     21.86181     21.86181     21.86181   0.21912344 
  417000    689.10727   -17.151964   -17.686409   0.53444463   -17.584834   -66.375725    10448.606     21.86181     21.86181     21.86181   0.21912344 
  418000    764.96061   -17.424406    -18.01768   0.59327351   -17.127978     45.45387    10448.606     21.86181     21.86181     21.86181   0.21912344 
  419000    413.02416    -17.29606   -17.616385   0.32032538   -16.511137    120.35901    10448.606     21.86181     21.86181     21.86181   0.21912344 
  420000    713.42026   -17.278962   -17.832263   0.55330083   -16.491973    120.67603    10448.606     21.86181     21.86181     21.86181   0.21912344 
[...]
 2017000    43.269982   -18.340404   -18.373963  0.033558505   -17.525761    124.91647    10448.606     21.86181     21.86181     21.86181   0.21912344 
 2018000    31.168154   -18.366261   -18.390434  0.024172801   -18.353648    1.9340988    10448.606     21.86181     21.86181     21.86181   0.21912344 
 2019000    66.350081   -18.316593   -18.368051  0.051458526   -19.149905     -127.779    10448.606     21.86181     21.86181     21.86181   0.21912344 
 2020000    38.891524   -18.355208   -18.385371  0.030162744   -17.500476    131.06358    10448.606     21.86181     21.86181     21.86181   0.21912344 
 2021000    25.392593   -18.364802   -18.384496  0.019693502   -18.969552   -92.731556    10448.606     21.86181     21.86181     21.86181   0.21912344 
 2022000    34.202206   -18.317569   -18.344095  0.026525893   -17.731672    89.840698    10448.606     21.86181     21.86181     21.86181   0.21912344 
 2023000    34.481168   -18.363946   -18.390689  0.026742245   -18.541372   -27.206198    10448.606     21.86181     21.86181     21.86181   0.21912344 
 2024000    59.701659   -18.339752   -18.386054   0.04630227   -18.961401   -95.322946    10448.606     21.86181     21.86181     21.86181   0.21912344 
 2025000    28.402489   -18.356135   -18.378163  0.022027859   -17.664742    106.01739    10448.606     21.86181     21.86181     21.86181   0.21912344 
 2026000    32.482497     -18.3337   -18.358892  0.025192153   -19.578234   -190.83528    10448.606     21.86181     21.86181     21.86181   0.21912344 
 2027000    27.458224   -18.353835    -18.37513  0.021295524   -17.523805    127.27574    10448.606     21.86181     21.86181     21.86181   0.21912344 
 2028000    35.884959   -18.364255   -18.392086   0.02783097    -18.55051   -28.560109    10448.606     21.86181     21.86181     21.86181   0.21912344 
 2029000    23.869614   -18.366483   -18.384995  0.018512339   -18.846863   -73.660868    10448.606     21.86181     21.86181     21.86181   0.21912344 
 2030000    38.577259   -18.341294   -18.371213  0.029919012   -17.011322    203.93622    10448.606     21.86181     21.86181     21.86181   0.21912344 
 2031000    22.324466   -18.371413   -18.388727  0.017313982   -19.186364   -124.96352    10448.606     21.86181     21.86181     21.86181   0.21912344 
 2032000    31.581855    -18.36905   -18.393544  0.024493651    -18.23059    21.231357    10448.606     21.86181     21.86181     21.86181   0.21912344 
 2033000    52.778786   -18.342704   -18.383637  0.040933161   -17.393533    145.54469    10448.606     21.86181     21.86181     21.86181   0.21912344 
 2034000    19.793212   -18.378656   -18.394007  0.015350841   -19.284987    -138.9757    10448.606     21.86181     21.86181     21.86181   0.21912344 
 2035000    46.719216   -18.349649   -18.385882  0.036233596   -17.652527    106.89581    10448.606     21.86181     21.86181     21.86181   0.21912344 
 2036000     44.79299   -18.340607   -18.375346  0.034739691   -18.171374    25.950004    10448.606     21.86181     21.86181     21.86181   0.21912344 
 2037000    9.6919534   -18.387849   -18.395365 0.0075166998   -18.963183   -88.221109    10448.606     21.86181     21.86181     21.86181   0.21912344 
 2038000    41.328625    -18.35577   -18.387823  0.032052864   -17.551709    123.29387    10448.606     21.86181     21.86181     21.86181   0.21912344 
 2039000    34.886048   -18.350695   -18.377751  0.027056254    -18.81828   -71.698906    10448.606     21.86181     21.86181     21.86181   0.21912344 
 2040000    45.316596   -18.354477   -18.389623  0.035145779   -18.587389   -35.714468    10448.606     21.86181     21.86181     21.86181   0.21912344 
 2041000    28.765427   -18.361771    -18.38408  0.022309339   -17.556054    123.54772    10448.606     21.86181     21.86181     21.86181   0.21912344 
 2042000    14.261397   -18.381721   -18.392782  0.011060582    -19.14953   -117.73477    10448.606     21.86181     21.86181     21.86181   0.21912344 
 2043000     24.53245   -18.363272   -18.382298  0.019026408   -17.606013    116.11713    10448.606     21.86181     21.86181     21.86181   0.21912344 
 2044000    45.020826   -18.355829   -18.390745  0.034916391    -18.52193   -25.469694    10448.606     21.86181     21.86181     21.86181   0.21912344 
 2045000    30.037412   -18.367342   -18.390638  0.023295841    -18.99476   -96.207465    10448.606     21.86181     21.86181     21.86181   0.21912344 
 2046000    18.056498   -18.379629   -18.393633  0.014003913   -17.521892    131.52427    10448.606     21.86181     21.86181     21.86181   0.21912344 
 2047000    25.701007   -18.375092   -18.395025  0.019932695   -19.269825   -137.19731    10448.606     21.86181     21.86181     21.86181   0.21912344 
 2048000    27.349937   -18.371445   -18.392656  0.021211541   -18.139044    35.636118    10448.606     21.86181     21.86181     21.86181   0.21912344 
 2049000    27.213326   -18.353246   -18.374352  0.021105591   -17.768479    89.667468    10448.606     21.86181     21.86181     21.86181   0.21912344 
 2050000    17.956508   -18.364336   -18.378262  0.013926365   -19.074133   -108.83948    10448.606     21.86181     21.86181     21.86181   0.21912344 
 2051000    19.908333   -18.375358   -18.390799  0.015440124   -17.737441    97.817563    10448.606     21.86181     21.86181     21.86181   0.21912344 
 2052000    32.947343   -18.372008    -18.39756   0.02555267   -18.758531   -59.269083    10448.606     21.86181     21.86181     21.86181   0.21912344 
 2053000    23.405627   -18.374935   -18.393087  0.018152488   -18.313153    9.4736245    10448.606     21.86181     21.86181     21.86181   0.21912344 
 2054000     13.49422   -18.378123   -18.388588  0.010465589   -17.980274    61.005678    10448.606     21.86181     21.86181     21.86181   0.21912344 
 2055000    23.485585   -18.368263   -18.386477  0.018214501   -18.893389   -80.522249    10448.606     21.86181     21.86181     21.86181   0.21912344 
 2056000    28.083498   -18.376928   -18.398709  0.021780462   -17.896405    73.682888    10448.606     21.86181     21.86181     21.86181   0.21912344 
 2057000    14.216348   -18.380317   -18.391343  0.011025643   -18.641695   -40.079384    10448.606     21.86181     21.86181     21.86181   0.21912344 
 2058000    31.739275   -18.374701   -18.399317  0.024615739   -18.584818   -32.219076    10448.606     21.86181     21.86181     21.86181   0.21912344 
 2059000    5.3539923   -18.388564   -18.392716 0.0041523469   -17.926342    70.876437    10448.606     21.86181     21.86181     21.86181   0.21912344 
 2060000    28.539876   -18.368829   -18.390964  0.022134411   -19.217784   -130.17773    10448.606     21.86181     21.86181     21.86181   0.21912344 
 2061000     11.74987   -18.389855   -18.398968 0.0091127392   -18.051557    51.874164    10448.606     21.86181     21.86181     21.86181   0.21912344 
 2062000    27.661458   -18.378091   -18.399544  0.021453144   -18.458575   -12.341344    10448.606     21.86181     21.86181     21.86181   0.21912344 
 2063000    21.662362   -18.377192   -18.393992  0.016800481   -18.673182    -45.38675    10448.606     21.86181     21.86181     21.86181   0.21912344 
 2064000    15.443782   -18.375189   -18.387166  0.011977593   -17.756543    94.862419    10448.606     21.86181     21.86181     21.86181   0.21912344 
 2065000    19.954788   -18.383091   -18.398568  0.015476153   -18.889529   -77.656466    10448.606     21.86181     21.86181     21.86181   0.21912344 
 2066000    14.116216   -18.386539   -18.397487  0.010947985   -18.226651    24.517062    10448.606     21.86181     21.86181     21.86181   0.21912344 
 2067000    13.178439   -18.391554   -18.401775  0.010220682   -18.310318    12.456674    10448.606     21.86181     21.86181     21.86181   0.21912344 
 2068000     15.89722   -18.380561    -18.39289  0.012329262   -18.903493   -80.185853    10448.606     21.86181     21.86181     21.86181   0.21912344 
 2069000    18.746909   -18.375748   -18.390287  0.014539369    -17.66722    108.64476    10448.606     21.86181     21.86181     21.86181   0.21912344 
 2070000    14.484879   -18.390692   -18.401926  0.011233906   -18.759851   -56.606266    10448.606     21.86181     21.86181     21.86181   0.21912344 
 2071000    7.7425179   -18.388805   -18.394809 0.0060047939   -18.292883    14.708525    10448.606     21.86181     21.86181     21.86181   0.21912344 
 2072000    11.260712   -18.386496   -18.395229 0.0087333672   -18.329043    8.8098093    10448.606     21.86181     21.86181     21.86181   0.21912344 
 2073000    11.736649   -18.392837   -18.401939 0.0091024859   -18.572162   -27.497456    10448.606     21.86181     21.86181     21.86181   0.21912344 
 2074000    15.417313   -18.389347   -18.401304  0.011957064   -18.075161    48.176925    10448.606     21.86181     21.86181     21.86181   0.21912344 
 2075000    13.212597   -18.387925   -18.398172  0.010247173   -18.653753   -40.761705    10448.606     21.86181     21.86181     21.86181   0.21912344 
 2076000    10.579016   -18.389676   -18.397881  0.008204671   -18.304915    12.997195    10448.606     21.86181     21.86181     21.86181   0.21912344 
 2077000    8.1401391    -18.39787   -18.404183 0.0063131734   -18.309843    13.497862    10448.606     21.86181     21.86181     21.86181   0.21912344 
 2078000    14.135857   -18.391323   -18.402286  0.010963217   -18.760766   -56.649853    10448.606     21.86181     21.86181     21.86181   0.21912344 
 2079000    8.2154757   -18.389843   -18.396214 0.0063716015   -18.060563    50.491316    10448.606     21.86181     21.86181     21.86181   0.21912344 
 2080000    9.1186004   -18.395061   -18.402133 0.0070720296   -18.686732   -44.724525    10448.606     21.86181     21.86181     21.86181   0.21912344 
Loop time of 29.4536 on 4 procs for 1980000 steps with 7 atoms

Performance: 2904.095 ns/day, 0.008 hours/ns, 67224.411 timesteps/s
78.2% CPU use with 4 MPI tasks x 1 OpenMP threads

MPI task timing breakdown:
Section |  min time  |  avg time  |  max time  |%varavg| %total
---------------------------------------------------------------
Pair    | 9.1186     | 9.6646     | 10.721     |  20.2 | 32.81
Neigh   | 0.0033803  | 0.0042812  | 0.005832   |   1.4 |  0.01
Comm    | 9.147      | 10.033     | 11.275     |  25.9 | 34.06
Output  | 0.13287    | 0.13739    | 0.15073    |   2.1 |  0.47
Modify  | 5.6593     | 6.586      | 7.9607     |  34.8 | 22.36
Other   |            | 3.029      |            |       | 10.28

Nlocal:    1.75 ave 6 max 0 min
Histogram: 2 1 0 0 0 0 0 0 0 1
Nghost:    5.25 ave 7 max 1 min
Histogram: 1 0 0 0 0 0 0 0 1 2
Neighs:    5.25 ave 17 max 0 min
Histogram: 2 0 1 0 0 0 0 0 0 1

Total # of neighbors = 21
Ave neighs/atom = 3
Neighbor list builds = 1174
Dangerous builds = 0
System init for write_restart ...
Setting up Verlet run ...
  Unit style    : metal
  Current step  : 2080000
  Time step     : 0.0005
Per MPI rank memory allocation (min/avg/max) = 3.942 | 4.691 | 4.941 Mbytes
Step Temp TotEng PotEng KinEng Enthalpy Press Lx Ly Lz Volume Density 
 2080000    9.1186004   -18.395061   -18.402133 0.0070720296   -18.686732   -44.724525     21.86181     21.86181     21.86181    10448.606   0.21912344 
 2081000    9.5849161   -18.395061   -18.402494 0.0074336859   -18.292373    15.746066     21.86181     21.86181     21.86181    10448.606   0.21912344 
 2082000    12.244708   -18.395061   -18.404557 0.0094965168     -18.3282    10.252331     21.86181     21.86181     21.86181    10448.606   0.21912344 
 2083000    9.0449711   -18.395061   -18.402076 0.0070149257   -18.685453   -44.528363     21.86181     21.86181     21.86181    10448.606   0.21912344 
 2084000       8.6399   -18.395061   -18.401761 0.0067007684   -18.025657    56.643926     21.86181     21.86181     21.86181    10448.606   0.21912344 
 2085000    6.6478499   -18.395061   -18.400217 0.0051558122   -18.657551   -40.249891     21.86181     21.86181     21.86181    10448.606   0.21912344 
 2086000     9.688402   -18.395061   -18.402575 0.0075139455   -18.243195    23.286964     21.86181     21.86181     21.86181    10448.606   0.21912344 
 2087000    5.7106342   -18.395061    -18.39949 0.0044289444   -18.300233    14.540694     21.86181     21.86181     21.86181    10448.606   0.21912344 
 2088000    7.9592897   -18.395061   -18.401234 0.0061729137   -18.661766   -40.896331     21.86181     21.86181     21.86181    10448.606   0.21912344 
 2089000    11.352348   -18.395061   -18.403865 0.0088044368    -18.06452    50.684683     21.86181     21.86181     21.86181    10448.606   0.21912344 
 2090000     9.133566   -18.395061   -18.402144 0.0070836364   -18.724574   -50.527184     21.86181     21.86181     21.86181    10448.606   0.21912344 
 2091000    10.563773   -18.395061   -18.403254  0.008192849   -18.296475    15.117051     21.86181     21.86181     21.86181    10448.606   0.21912344 
 2092000    9.2104767   -18.395061   -18.402204 0.0071432853    -18.29848    14.809577     21.86181     21.86181     21.86181    10448.606   0.21912344 
 2093000    9.4136113   -18.395061   -18.402362 0.0073008286   -18.638755   -37.367733     21.86181     21.86181     21.86181    10448.606   0.21912344 
 2094000    5.3506176   -18.395061    -18.39921 0.0041497296   -18.026826    56.464588     21.86181     21.86181     21.86181    10448.606   0.21912344 
 2095000     6.090969   -18.395061   -18.399785 0.0047239172   -18.666064    -41.55538     21.86181     21.86181     21.86181    10448.606   0.21912344 
 2096000    7.3905811   -18.395061   -18.400793 0.0057318455   -18.240137    23.755766     21.86181     21.86181     21.86181    10448.606   0.21912344 
 2097000    11.889428   -18.395061   -18.404282 0.0092209749   -18.325923    10.601532     21.86181     21.86181     21.86181    10448.606   0.21912344 
 2098000    8.8573969   -18.395061    -18.40193 0.0068694505   -18.693097   -45.700564     21.86181     21.86181     21.86181    10448.606   0.21912344 
 2099000    10.272434   -18.395061   -18.403028 0.0079668981   -18.070833    49.716756     21.86181     21.86181     21.86181    10448.606   0.21912344 
 2100000    9.9468272   -18.395061   -18.402775 0.0077143699    -18.71222   -48.632781     21.86181     21.86181     21.86181    10448.606   0.21912344 
 2101000    11.207004   -18.395061   -18.403753 0.0086917136   -18.244894     23.02637     21.86181     21.86181     21.86181    10448.606   0.21912344 
 2102000    7.1956998   -18.395061   -18.400641 0.0055807032    -18.32255    11.118654     21.86181     21.86181     21.86181    10448.606   0.21912344 
 2103000     5.243515   -18.395061   -18.399127 0.0040666651   -18.624392   -35.165421     21.86181     21.86181     21.86181    10448.606   0.21912344 
 2104000      7.81925   -18.395061   -18.401125 0.0060643043    -18.01736    57.916108     21.86181     21.86181     21.86181    10448.606   0.21912344 
 2105000    8.7141683   -18.395061   -18.401819 0.0067583679   -18.702106   -47.081897     21.86181     21.86181     21.86181    10448.606   0.21912344 
 2106000    7.5420389   -18.395061    -18.40091 0.0058493103   -18.269897    19.192388     21.86181     21.86181     21.86181    10448.606   0.21912344 
 2107000    10.778157   -18.395061    -18.40342 0.0083591169    -18.35748    5.7626639     21.86181     21.86181     21.86181    10448.606   0.21912344 
 2108000    11.207972   -18.395061   -18.403753 0.0086924647   -18.649258   -38.978369     21.86181     21.86181     21.86181    10448.606   0.21912344 
 2109000    8.3881421   -18.395061   -18.401566 0.0065055148   -18.056172    51.964773     21.86181     21.86181     21.86181    10448.606   0.21912344 
 2110000    8.1564593   -18.395061   -18.401387 0.0063258307   -18.686439   -44.679574     21.86181     21.86181     21.86181    10448.606   0.21912344 
 2111000    5.8882147   -18.395061   -18.399627 0.0045666689   -18.222885    26.401138     21.86181     21.86181     21.86181    10448.606   0.21912344 
 2112000    10.485863   -18.395061   -18.403193 0.0081324247   -18.312039    12.730542     21.86181     21.86181     21.86181    10448.606   0.21912344 
 2113000    9.0298944   -18.395061   -18.402064 0.0070032327   -18.656641   -40.110449     21.86181     21.86181     21.86181    10448.606   0.21912344 
 2114000    7.1507459   -18.395061   -18.400607 0.0055458387   -18.077716    48.661241     21.86181     21.86181     21.86181    10448.606   0.21912344 
 2115000    10.532294   -18.395061   -18.403229  0.008168435    -18.72453   -50.520337     21.86181     21.86181     21.86181    10448.606   0.21912344 
 2116000    11.354605   -18.395061   -18.403867  0.008806187   -18.256341     21.27117     21.86181     21.86181     21.86181    10448.606   0.21912344 
 2117000    9.9284115   -18.395061   -18.402761 0.0077000875   -18.345049    7.6687221     21.86181     21.86181     21.86181    10448.606   0.21912344 
 2118000    4.9739688   -18.395061   -18.398918 0.0038576156   -18.639777   -37.524438     21.86181     21.86181     21.86181    10448.606   0.21912344 
 2119000    8.4233149   -18.395061   -18.401593 0.0065327935   -18.003549     60.03386     21.86181     21.86181     21.86181    10448.606   0.21912344 
 2120000    6.6648158   -18.395061    -18.40023 0.0051689703   -18.664665   -41.340792     21.86181     21.86181     21.86181    10448.606   0.21912344 
 2121000    7.5941058   -18.395061    -18.40095 0.0058896913   -18.233964    24.702349     21.86181     21.86181     21.86181    10448.606   0.21912344 
 2122000    7.4223249   -18.395061   -18.400817 0.0057564648   -18.339341    8.5440314     21.86181     21.86181     21.86181    10448.606   0.21912344 
 2123000    12.293897   -18.395061   -18.404595 0.0095346654   -18.659549   -40.556232     21.86181     21.86181     21.86181    10448.606   0.21912344 
 2124000    10.621523   -18.395061   -18.403298 0.0082376376   -18.083991    47.699017     21.86181     21.86181     21.86181    10448.606   0.21912344 
 2125000    9.4185481   -18.395061   -18.402365 0.0073046574   -18.729686   -51.311031     21.86181     21.86181     21.86181    10448.606   0.21912344 
 2126000     9.013014   -18.395061   -18.402051  0.006990141   -18.250504    22.166161     21.86181     21.86181     21.86181    10448.606   0.21912344 
 2127000    8.2358727   -18.395061   -18.401448 0.0063874206   -18.322178    11.175714     21.86181     21.86181     21.86181    10448.606   0.21912344 
 2128000    7.7871144   -18.395061     -18.4011 0.0060393812   -18.616015   -33.880914     21.86181     21.86181     21.86181    10448.606   0.21912344 
 2129000    5.2016154   -18.395061   -18.399095 0.0040341693   -18.024782    56.778104     21.86181     21.86181     21.86181    10448.606   0.21912344 
 2130000    6.3742818   -18.395061   -18.400004 0.0049436436   -18.707457   -47.902469     21.86181     21.86181     21.86181    10448.606   0.21912344 
Loop time of 0.638935 on 4 procs for 50000 steps with 7 atoms

Performance: 3380.628 ns/day, 0.007 hours/ns, 78255.269 timesteps/s
74.6% CPU use with 4 MPI tasks x 1 OpenMP threads

MPI task timing breakdown:
Section |  min time  |  avg time  |  max time  |%varavg| %total
---------------------------------------------------------------
Pair    | 0.22205    | 0.23335    | 0.25511    |   2.8 | 36.52
Neigh   | 7.8678e-06 | 1.0014e-05 | 1.1921e-05 |   0.0 |  0.00
Comm    | 0.23878    | 0.26428    | 0.27952    |   3.0 | 41.36
Output  | 0.0033314  | 0.0034588  | 0.0038311  |   0.4 |  0.54
Modify  | 0.059678   | 0.064546   | 0.067597   |   1.2 | 10.10
Other   |            | 0.07328    |            |       | 11.47

Nlocal:    1.75 ave 4 max 0 min
Histogram: 1 0 1 0 0 1 0 0 0 1
Nghost:    6.25 ave 9 max 3 min
Histogram: 1 0 0 0 0 1 1 0 0 1
Neighs:    5.25 ave 15 max 0 min
Histogram: 2 0 0 1 0 0 0 0 0 1

Total # of neighbors = 21
Ave neighs/atom = 3
Neighbor list builds = 2
Dangerous builds = 0
System init for write_restart ...
Total wall time: 0:00:32
