LAMMPS Structure File written by MatSQ2

7 atoms

1 atom types

0 25.6 xlo xhi
0 25.6 ylo yhi
0 25.6 zlo zhi
0 0 0 xy xz yz

Masses

1 196.9665

Atoms

1 1 10 10 10
2 1 10 10 12.8
3 1 10 12.8 10
4 1 10 12.8 12.8
5 1 12.8 10 10
6 1 12.8 10 12.8
7 1 12.8 12.8 10
