LAMMPS (5 May 2020)
OMP_NUM_THREADS environment is not set. Defaulting to 1 thread. (../comm.cpp:94)
  using 1 OpenMP thread(s) per MPI task
Reading data file ...
  triclinic box = (0 0 0) to (36.32 36.32 36.32) with tilt (0 0 0)
  2 by 2 by 2 MPI processor grid
  reading atoms ...
  256 atoms
  read_data CPU = 0.00114799 secs
WARNING: Using 'neigh_modify every 1 delay 0 check yes' setting during minimization (../min.cpp:190)
Neighbor list info ...
  update every 1 steps, delay 0 steps, check yes
  max neighbors/atom: 2000, page size: 100000
  master list distance cutoff = 7.5155
  ghost atom cutoff = 7.5155
  binsize = 3.75775, bins = 10 10 10
  1 neighbor lists, perpetual/occasional/extra = 1 0 0
  (1) pair eam/alloy, perpetual
      attributes: half, newton on
      pair build: half/bin/newton/tri
      stencil: half/bin/3d/newton/tri
      bin: standard
Setting up cg style minimization ...
  Unit style    : metal
  Current step  : 0
WARNING: Energy due to 1 extra global DOFs will be included in minimizer energies
Per MPI rank memory allocation (min/avg/max) = 4.438 | 4.438 | 4.438 Mbytes
Step Temp E_pair E_mol TotEng Press Volume 
       0            0   -885.92577            0   -885.92577   -8927.7441    47911.252 
     174            0   -903.55548            0   -903.55548 9.6675497e-05    44703.804 
Loop time of 0.0286696 on 8 procs for 174 steps with 256 atoms

95.6% CPU use with 8 MPI tasks x 1 OpenMP threads

Minimization stats:
  Stopping criterion = energy tolerance
  Energy initial, next-to-last, final = 
        -885.925767634     -903.555476431     -903.555476431
  Force two-norm initial, final = 801.035 2.30677e-05
  Force max component initial, final = 800.922 8.28138e-06
  Final line search alpha, max atom move = 1 8.28138e-06
  Iterations, force evaluations = 174 317

MPI task timing breakdown:
Section |  min time  |  avg time  |  max time  |%varavg| %total
---------------------------------------------------------------
Pair    | 0.014797   | 0.016133   | 0.017648   |   0.9 | 56.27
Neigh   | 3.6001e-05 | 4.5687e-05 | 5.6982e-05 |   0.0 |  0.16
Comm    | 0.0053606  | 0.0071879  | 0.0089471  |   1.8 | 25.07
Output  | 0          | 0          | 0          |   0.0 |  0.00
Modify  | 0          | 0          | 0          |   0.0 |  0.00
Other   |            | 0.005303   |            |       | 18.50

Nlocal:    32 ave 32 max 32 min
Histogram: 8 0 0 0 0 0 0 0 0 0
Nghost:    178.875 ave 224 max 139 min
Histogram: 1 0 3 0 0 0 3 0 0 1
Neighs:    1126.5 ave 1410 max 843 min
Histogram: 4 0 0 0 0 0 0 0 0 4

Total # of neighbors = 9012
Ave neighs/atom = 35.2031
Neighbor list builds = 1
Dangerous builds = 0
Setting up Verlet run ...
  Unit style    : metal
  Current step  : 0
  Time step     : 0.0005
Per MPI rank memory allocation (min/avg/max) = 3.313 | 3.313 | 3.313 Mbytes
Step Temp TotEng PotEng KinEng Enthalpy Press Lx Ly Lz Volume Density 
       0            0   -903.55548   -903.55548            0   -903.55547 9.6675514e-05    35.490721    35.490721    35.490721    44703.804    1.8730295 
    1000 5.6943713e-10   -903.55548   -903.55548 1.8769409e-11   -903.55548 -9.5751963e-05    35.490721    35.490721    35.490721    44703.804    1.8730295 
    2000 6.3086807e-10   -903.55548   -903.55548 2.0794255e-11   -903.55564 -0.0060253994    35.490721    35.490721    35.490721    44703.804    1.8730295 
    3000 5.6873574e-10   -903.55548   -903.55548 1.874629e-11   -903.55576 -0.010042884    35.490721    35.490721    35.490721    44703.804    1.8730295 
    4000 7.6298477e-10   -903.55548   -903.55548 2.5148998e-11   -903.55538 0.0032918522    35.490721    35.490721    35.490721    44703.804    1.8730295 
    5000 6.4570497e-10   -903.55548   -903.55548 2.1283299e-11   -903.55543 0.0016131706    35.490721    35.490721    35.490721    44703.804    1.8730295 
    6000 8.2185496e-10   -903.55548   -903.55548 2.7089438e-11   -903.55531 0.0057931264    35.490721    35.490721    35.490721    44703.804    1.8730295 
    7000 8.3712466e-10   -903.55548   -903.55548 2.7592748e-11   -903.55564 -0.0057406514    35.490721    35.490721    35.490721    44703.804    1.8730295 
    8000 7.8506917e-10   -903.55548   -903.55548 2.587693e-11   -903.55562 -0.0050334137    35.490721    35.490721    35.490721    44703.804    1.8730295 
    9000 7.8378354e-10   -903.55548   -903.55548 2.5834554e-11   -903.55535 0.0047082761    35.490721    35.490721    35.490721    44703.804    1.8730295 
   10000 5.9243565e-10   -903.55548   -903.55548 1.9527471e-11   -903.55536 0.0042715065    35.490721    35.490721    35.490721    44703.804    1.8730295 
   11000 3.8043777e-10   -903.55548   -903.55548 1.2539738e-11    -903.5552 0.0097939024    35.490721    35.490721    35.490721    44703.804    1.8730295 
   12000 5.0365218e-10   -903.55548   -903.55548 1.6601049e-11    -903.5555 -0.0008541173    35.490721    35.490721    35.490721    44703.804    1.8730295 
   13000 6.7322128e-10   -903.55548   -903.55548 2.2190274e-11   -903.55546 0.00061053705    35.490721    35.490721    35.490721    44703.804    1.8730295 
   14000 4.9098219e-10   -903.55548   -903.55548 1.6183429e-11   -903.55542 0.0019091613    35.490721    35.490721    35.490721    44703.804    1.8730295 
   15000 4.4500094e-10   -903.55548   -903.55548 1.4667826e-11   -903.55539 0.0030443626    35.490721    35.490721    35.490721    44703.804    1.8730295 
   16000 6.2190886e-10   -903.55548   -903.55548 2.0498948e-11   -903.55524 0.0083126863    35.490721    35.490721    35.490721    44703.804    1.8730295 
   17000 6.653699e-10   -903.55548   -903.55548 2.1931482e-11   -903.55555 -0.0027466492    35.490721    35.490721    35.490721    44703.804    1.8730295 
   18000 8.8917367e-10   -903.55548   -903.55548 2.9308353e-11    -903.5555 -0.00089507268    35.490721    35.490721    35.490721    44703.804    1.8730295 
   19000 8.8723927e-10   -903.55548   -903.55548 2.9244592e-11   -903.55547 0.00026037379    35.490721    35.490721    35.490721    44703.804    1.8730295 
   20000 6.3436283e-10   -903.55548   -903.55548 2.0909447e-11   -903.55547 0.00019191663    35.490721    35.490721    35.490721    44703.804    1.8730295 
   21000 7.5366632e-10   -903.55548   -903.55548 2.4841849e-11   -903.55543 0.0016355542    35.490721    35.490721    35.490721    44703.804    1.8730295 
   22000 5.9960905e-10   -903.55548   -903.55548 1.9763916e-11   -903.55563 -0.0056633502    35.490721    35.490721    35.490721    44703.804    1.8730295 
   23000 5.1954805e-10   -903.55548   -903.55548 1.7124998e-11   -903.55562 -0.0053004318    35.490721    35.490721    35.490721    44703.804    1.8730295 
   24000 7.9448782e-10   -903.55548   -903.55548 2.6187381e-11   -903.55545 0.0008628263    35.490721    35.490721    35.490721    44703.804    1.8730295 
   25000 4.5315746e-10   -903.55548   -903.55548 1.4936676e-11   -903.55561 -0.0049146694    35.490721    35.490721    35.490721    44703.804    1.8730295 
   26000 4.3614043e-10   -903.55548   -903.55548 1.4375772e-11   -903.55543 0.0016246007    35.490721    35.490721    35.490721    44703.804    1.8730295 
   27000 5.8878239e-10   -903.55548   -903.55548 1.9407055e-11   -903.55572 -0.0087022443    35.490721    35.490721    35.490721    44703.804    1.8730295 
   28000 5.658415e-10   -903.55548   -903.55548 1.8650892e-11   -903.55555 -0.0027205733    35.490721    35.490721    35.490721    44703.804    1.8730295 
   29000 9.5448773e-10   -903.55548   -903.55548 3.1461192e-11   -903.55549 -0.00033532584    35.490721    35.490721    35.490721    44703.804    1.8730295 
   30000 6.9020565e-10   -903.55548   -903.55548 2.2750101e-11   -903.55548 -0.00011789605    35.490721    35.490721    35.490721    44703.804    1.8730295 
   31000 6.4466356e-10   -903.55548   -903.55548 2.1248973e-11   -903.55542 0.0020126566    35.490721    35.490721    35.490721    44703.804    1.8730295 
   32000 8.5947163e-10   -903.55548   -903.55548 2.8329334e-11   -903.55567 -0.0070248927    35.490721    35.490721    35.490721    44703.804    1.8730295 
   33000 7.9073058e-10   -903.55548   -903.55548 2.6063537e-11   -903.55542 0.0019759168    35.490721    35.490721    35.490721    44703.804    1.8730295 
   34000 7.691767e-10   -903.55548   -903.55548 2.5353092e-11    -903.5554 0.0027331807    35.490721    35.490721    35.490721    44703.804    1.8730295 
   35000 7.1185263e-10   -903.55548   -903.55548 2.3463614e-11   -903.55528 0.0068618021    35.490721    35.490721    35.490721    44703.804    1.8730295 
   36000 6.4833039e-10   -903.55548   -903.55548 2.1369837e-11   -903.55533 0.0053978887    35.490721    35.490721    35.490721    44703.804    1.8730295 
   37000 3.5721485e-10   -903.55548   -903.55548 1.1774279e-11   -903.55557 -0.0032752941    35.490721    35.490721    35.490721    44703.804    1.8730295 
   38000 5.2160632e-10   -903.55548   -903.55548 1.7192842e-11   -903.55545 0.00085336282    35.490721    35.490721    35.490721    44703.804    1.8730295 
   39000 6.990308e-10   -903.55548   -903.55548 2.304099e-11   -903.55535 0.0047007993    35.490721    35.490721    35.490721    44703.804    1.8730295 
   40000 6.1451445e-10   -903.55548   -903.55548 2.0255218e-11   -903.55528  0.007083446    35.490721    35.490721    35.490721    44703.804    1.8730295 
   41000 6.8317011e-10   -903.55548   -903.55548  2.25182e-11   -903.55526 0.0078190758    35.490721    35.490721    35.490721    44703.804    1.8730295 
   42000 4.674584e-10   -903.55548   -903.55548 1.5408054e-11   -903.55564 -0.0058997065    35.490721    35.490721    35.490721    44703.804    1.8730295 
   43000 7.5232022e-10   -903.55548   -903.55548 2.479748e-11    -903.5555 -0.001007846    35.490721    35.490721    35.490721    44703.804    1.8730295 
   44000 9.4551132e-10   -903.55548   -903.55548 3.1165317e-11   -903.55543 0.0015807116    35.490721    35.490721    35.490721    44703.804    1.8730295 
   45000 6.3751308e-10   -903.55548   -903.55548 2.1013283e-11    -903.5554 0.0027546396    35.490721    35.490721    35.490721    44703.804    1.8730295 
   46000 7.9397489e-10   -903.55548   -903.55548 2.6170474e-11   -903.55534  0.004995202    35.490721    35.490721    35.490721    44703.804    1.8730295 
   47000 7.360409e-10   -903.55548   -903.55548 2.4260892e-11   -903.55572 -0.0088491268    35.490721    35.490721    35.490721    44703.804    1.8730295 
   48000 4.6729593e-10   -903.55548   -903.55548 1.5402699e-11   -903.55559 -0.0042433242    35.490721    35.490721    35.490721    44703.804    1.8730295 
   49000 7.2663457e-10   -903.55548   -903.55548 2.3950847e-11   -903.55562 -0.0052631357    35.490721    35.490721    35.490721    44703.804    1.8730295 
   50000 7.040577e-10   -903.55548   -903.55548 2.3206683e-11    -903.5554 0.0029145048    35.490721    35.490721    35.490721    44703.804    1.8730295 
Loop time of 3.3225 on 8 procs for 50000 steps with 256 atoms

Performance: 650.112 ns/day, 0.037 hours/ns, 15048.889 timesteps/s
89.8% CPU use with 8 MPI tasks x 1 OpenMP threads

MPI task timing breakdown:
Section |  min time  |  avg time  |  max time  |%varavg| %total
---------------------------------------------------------------
Pair    | 1.8072     | 2.08       | 2.3656     |  16.0 | 62.60
Neigh   | 0          | 0          | 0          |   0.0 |  0.00
Comm    | 0.75676    | 1.0506     | 1.3149     |  22.8 | 31.62
Output  | 0.00095844 | 0.0010556  | 0.0015547  |   0.6 |  0.03
Modify  | 0.070989   | 0.085173   | 0.096437   |   2.9 |  2.56
Other   |            | 0.1058     |            |       |  3.18

Nlocal:    32 ave 38 max 26 min
Histogram: 4 0 0 0 0 0 0 0 0 4
Nghost:    178.875 ave 218 max 145 min
Histogram: 1 0 0 3 0 3 0 0 0 1
Neighs:    970.5 ave 1414 max 566 min
Histogram: 3 0 0 1 1 0 0 0 0 3

Total # of neighbors = 7764
Ave neighs/atom = 30.3281
Neighbor list builds = 0
Dangerous builds = 0
System init for write_restart ...
Neighbor list info ...
  update every 10 steps, delay 0 steps, check yes
  max neighbors/atom: 2000, page size: 100000
  master list distance cutoff = 7.5155
  ghost atom cutoff = 7.5155
  binsize = 3.75775, bins = 10 10 10
  2 neighbor lists, perpetual/occasional/extra = 1 1 0
  (1) pair eam/alloy, perpetual
      attributes: half, newton on
      pair build: half/bin/newton/tri
      stencil: half/bin/3d/newton/tri
      bin: standard
  (2) compute rdf, occasional, copy from (1)
      attributes: half, newton on
      pair build: copy
      stencil: none
      bin: none
Setting up Verlet run ...
  Unit style    : metal
  Current step  : 0
  Time step     : 0.0005
Per MPI rank memory allocation (min/avg/max) = 4.946 | 4.946 | 4.946 Mbytes
Step Temp TotEng PotEng KinEng Enthalpy Press Volume Lx Ly Lz Density 
       0         1500   -854.11347   -903.55548    49.442005   -821.15205    1181.3314    44703.804    35.490721    35.490721    35.490721    1.8730295 
    1000    1380.8769   -792.53748   -838.05303    45.515549   -843.19515   -1815.5621    44703.804    35.490721    35.490721    35.490721    1.8730295 
    2000     1559.262   -788.48603   -839.88139    51.395359   -799.48009   -394.02487    44703.804    35.490721    35.490721    35.490721    1.8730295 
    3000    1482.2595   -784.94597   -833.80323    48.857256    -726.2299    2104.3737    44703.804    35.490721    35.490721    35.490721    1.8730295 
    4000    1536.3596    -784.4573   -835.09777    50.640465   -801.66722   -616.80047    44703.804    35.490721    35.490721    35.490721    1.8730295 
    5000    1481.9863   -784.29446   -833.14271    48.848251    -776.6864    272.67141    44703.804    35.490721    35.490721    35.490721    1.8730295 
    6000    1513.5866   -783.51537   -833.40521    49.889838    -808.4209   -892.60958    44703.804    35.490721    35.490721    35.490721    1.8730295 
    7000    1677.1624   -784.45755   -839.73906    55.281514   -767.19399    618.72283    44703.804    35.490721    35.490721    35.490721    1.8730295 
    8000    1506.2821   -783.26011   -832.90918     49.64907   -752.12657    1115.8206    44703.804    35.490721    35.490721    35.490721    1.8730295 
    9000     1409.371   -787.54424   -833.99899    46.454752   -780.94387    236.55596    44703.804    35.490721    35.490721    35.490721    1.8730295 
   10000    1470.6515   -788.95196    -837.4266     48.47464    -801.5556   -451.71196    44703.804    35.490721    35.490721    35.490721    1.8730295 
   11000    1551.5931   -790.64363   -841.78622    51.142582   -786.53645    147.20084    44703.804    35.490721    35.490721    35.490721    1.8730295 
   12000     1488.475   -793.62651   -842.68864    49.062124   -812.86763   -689.59829    44703.804    35.490721    35.490721    35.490721    1.8730295 
   13000    1468.6215   -788.99793   -837.40565    48.407728   -792.27957    -117.6135    44703.804    35.490721    35.490721    35.490721    1.8730295 
   14000    1710.1884   -782.74219   -839.11228    56.370097   -779.48949     116.5761    44703.804    35.490721    35.490721    35.490721    1.8730295 
   15000    1463.3608   -787.98584   -836.22017    48.234329   -788.12833    -5.106803    44703.804    35.490721    35.490721    35.490721    1.8730295 
   16000     1618.604   -785.45128   -838.80263    53.351351   -765.86256    702.05617    44703.804    35.490721    35.490721    35.490721    1.8730295 
   17000    1489.1752   -792.07735   -841.16255    49.085206   -802.81633   -384.88313    44703.804    35.490721    35.490721    35.490721    1.8730295 
   18000    1510.5916   -787.44247   -837.23359    49.791119   -808.77151   -764.42884    44703.804    35.490721    35.490721    35.490721    1.8730295 
   19000    1473.1479   -788.01835   -836.57527    48.556924   -830.62602   -1527.0516    44703.804    35.490721    35.490721    35.490721    1.8730295 
   20000     1535.999   -783.14692    -833.7755     50.62858   -761.94895    759.73166    44703.804    35.490721    35.490721    35.490721    1.8730295 
   21000    1447.7586   -791.80342   -839.52348    47.720059   -823.16193   -1123.8836    44703.804    35.490721    35.490721    35.490721    1.8730295 
   22000    1517.9441   -785.94822   -835.98169    50.033465   -787.57488   -58.298969    44703.804    35.490721    35.490721    35.490721    1.8730295 
   23000    1544.3698   -783.92372   -834.82822    50.904494   -799.89854   -572.53475    44703.804    35.490721    35.490721    35.490721    1.8730295 
   24000    1572.3124   -782.00463   -833.83015    51.825519   -809.04152   -968.99756    44703.804    35.490721    35.490721    35.490721    1.8730295 
   25000    1454.1306     -785.377   -833.30709    47.930087   -789.09324   -133.18932    44703.804    35.490721    35.490721    35.490721    1.8730295 
   26000    1625.9282   -781.40438   -834.99715    53.592768   -781.21796    6.6811236    44703.804    35.490721    35.490721    35.490721    1.8730295 
   27000    1499.3603   -784.80105   -834.22197    49.420919    -778.5105    225.45204    44703.804    35.490721    35.490721    35.490721    1.8730295 
   28000     1502.727   -784.52898   -834.06087    49.531892    -786.8334   -82.589944    44703.804    35.490721    35.490721    35.490721    1.8730295 
   29000    1525.5787   -779.55242   -829.83753    50.285113   -774.70559    173.70961    44703.804    35.490721    35.490721    35.490721    1.8730295 
   30000    1652.2353   -778.69343   -833.15331    54.459884   -744.72018    1217.5953    44703.804    35.490721    35.490721    35.490721    1.8730295 
   31000    1495.2405   -780.44519   -829.73031    49.285125   -804.27851   -854.18231    44703.804    35.490721    35.490721    35.490721    1.8730295 
   32000    1416.6355   -785.57121   -832.26541    46.694201   -754.30981    1120.4032    44703.804    35.490721    35.490721    35.490721    1.8730295 
   33000    1559.5931    -782.7319   -834.13817    51.406272   -780.66766    73.981908    44703.804    35.490721    35.490721    35.490721    1.8730295 
   34000    1720.4874   -783.84459   -840.55415    56.709563   -828.36638   -1595.6533    44703.804    35.490721    35.490721    35.490721    1.8730295 
   35000    1531.3703   -783.00163   -833.47764    50.476011   -760.37596    810.89985    44703.804    35.490721    35.490721    35.490721    1.8730295 
   36000    1568.8664   -782.07975   -833.79169    51.711934   -760.62344    768.99064    44703.804    35.490721    35.490721    35.490721    1.8730295 
   37000    1622.4729   -780.55211   -834.03098    53.478877   -777.50269    109.29061    44703.804    35.490721    35.490721    35.490721    1.8730295 
   38000    1423.0001    -790.2107   -837.11469    46.903987   -793.52499    -118.7837    44703.804    35.490721    35.490721    35.490721    1.8730295 
   39000    1431.3518   -790.97472   -838.15399     47.17927   -779.19026    422.35299    44703.804    35.490721    35.490721    35.490721    1.8730295 
   40000    1659.5208   -778.06374   -832.76377    54.700025   -742.91613    1259.6842    44703.804    35.490721    35.490721    35.490721    1.8730295 
   41000    1585.1578    -784.5269   -836.77582     52.24892   -787.29024   -99.037396    44703.804    35.490721    35.490721    35.490721    1.8730295 
   42000    1500.4187   -785.30585   -834.76166    49.455808   -776.44687    317.50437    44703.804    35.490721    35.490721    35.490721    1.8730295 
   43000     1514.448   -786.91851   -836.83674    49.918233   -788.26069   -48.103612    44703.804    35.490721    35.490721    35.490721    1.8730295 
   44000    1492.9458   -782.70612   -831.91561    49.209488   -811.78908   -1042.3279    44703.804    35.490721    35.490721    35.490721    1.8730295 
   45000    1490.9215   -790.16035   -839.30312    49.142767   -813.41221   -833.34242    44703.804    35.490721    35.490721    35.490721    1.8730295 
   46000    1509.0789   -787.47979   -837.22105    49.741258    -799.9251   -446.03776    44703.804    35.490721    35.490721    35.490721    1.8730295 
   47000    1573.7332   -782.15352   -834.02587     51.87235   -782.63742   -17.342674    44703.804    35.490721    35.490721    35.490721    1.8730295 
   48000     1521.593   -784.65228   -834.80602     50.15374   -787.81551   -113.36948    44703.804    35.490721    35.490721    35.490721    1.8730295 
   49000    1467.3952   -784.04524   -832.41255    48.367307   -815.49246   -1127.0628    44703.804    35.490721    35.490721    35.490721    1.8730295 
   50000    1524.4875   -788.11297   -838.36212    50.249146   -792.32238    -150.8647    44703.804    35.490721    35.490721    35.490721    1.8730295 
Loop time of 4.10965 on 8 procs for 50000 steps with 256 atoms

Performance: 525.592 ns/day, 0.046 hours/ns, 12166.489 timesteps/s
90.0% CPU use with 8 MPI tasks x 1 OpenMP threads

MPI task timing breakdown:
Section |  min time  |  avg time  |  max time  |%varavg| %total
---------------------------------------------------------------
Pair    | 1.9526     | 2.3964     | 3.0402     |  21.9 | 58.31
Neigh   | 0.0054321  | 0.011162   | 0.01901    |   4.1 |  0.27
Comm    | 0.70254    | 1.3442     | 1.8142     |  29.7 | 32.71
Output  | 0.0065343  | 0.0065777  | 0.0068521  |   0.1 |  0.16
Modify  | 0.21974    | 0.24415    | 0.26397    |   2.9 |  5.94
Other   |            | 0.1071     |            |       |  2.61

Nlocal:    32 ave 56 max 24 min
Histogram: 4 0 2 1 0 0 0 0 0 1
Nghost:    183.5 ave 194 max 172 min
Histogram: 1 0 1 0 1 2 1 1 0 1
Neighs:    935.25 ave 2026 max 474 min
Histogram: 2 2 1 1 0 1 0 0 0 1

Total # of neighbors = 7482
Ave neighs/atom = 29.2266
Neighbor list builds = 205
Dangerous builds = 0
System init for write_restart ...
Setting up Verlet run ...
  Unit style    : metal
  Current step  : 50000
  Time step     : 0.0005
Per MPI rank memory allocation (min/avg/max) = 4.947 | 4.947 | 4.947 Mbytes
Step Temp TotEng PotEng KinEng Enthalpy Press Lx Ly Lz Volume Density 
   50000    1524.4875   -788.11297   -838.36212    50.249146   -792.32238    -150.8647    35.490721    35.490721    35.490721    44703.804    1.8730295 
   51000    1434.3123   -788.11289   -835.38974     47.27685   -752.82474     1264.721    35.490721    35.490721    35.490721    44703.804    1.8730295 
   52000    1471.9798   -788.11297   -836.63139    48.518423   -794.32032   -222.47015    35.490721    35.490721    35.490721    44703.804    1.8730295 
   53000    1420.3123   -788.11284   -834.92823    46.815393   -808.77299    -740.4562    35.490721    35.490721    35.490721    44703.804    1.8730295 
   54000      1440.37   -788.11295   -835.58947    47.476519   -795.46123   -263.36107    35.490721    35.490721    35.490721    44703.804    1.8730295 
   55000    1379.5222   -788.11288   -833.58377    45.470897   -751.81794     1300.804    35.490721    35.490721    35.490721    44703.804    1.8730295 
   56000    1460.3549   -788.11289   -836.24814    48.135251   -785.49457     93.84009    35.490721    35.490721    35.490721    44703.804    1.8730295 
   57000    1460.6419   -788.11291   -836.25762    48.144709   -798.24063   -362.97567    35.490721    35.490721    35.490721    44703.804    1.8730295 
   58000    1538.2215   -788.11301   -838.81485    50.701837   -807.49151   -694.52205    35.490721    35.490721    35.490721    44703.804    1.8730295 
   59000    1386.5033   -788.11289   -833.81389    45.701001    -798.7154   -379.99181    35.490721    35.490721    35.490721    44703.804    1.8730295 
   60000     1504.478   -788.11291   -837.70252    49.589605   -786.82789    46.055134    35.490721    35.490721    35.490721    44703.804    1.8730295 
   61000    1515.6186   -788.11292   -838.06974    49.956815   -782.95334     184.9186    35.490721    35.490721    35.490721    44703.804    1.8730295 
   62000     1467.446   -788.11295   -836.48193    48.368982   -783.04296    181.70754    35.490721    35.490721    35.490721    44703.804    1.8730295 
   63000    1484.0371   -788.11296   -837.02881    48.915848   -779.40655    312.03633    35.490721    35.490721    35.490721    44703.804    1.8730295 
   64000    1410.5379   -788.11288   -834.60609    46.493215   -812.13281   -860.87029    35.490721    35.490721    35.490721    44703.804    1.8730295 
   65000    1396.0008   -788.11293   -834.12698    46.014052   -769.56009    664.93039    35.490721    35.490721    35.490721    44703.804    1.8730295 
   66000    1492.0657   -788.11301   -837.29349    49.180482   -788.65457   -19.409395    35.490721    35.490721    35.490721    44703.804    1.8730295 
   67000    1448.1192    -788.1129   -835.84485    47.731944   -763.12695    895.49217    35.490721    35.490721    35.490721    44703.804    1.8730295 
   68000     1437.049    -788.1129   -835.47995    47.367057    -801.2109   -469.43021    35.490721    35.490721    35.490721    44703.804    1.8730295 
   69000    1553.7635   -788.11293   -839.32706    51.214121   -773.84722     511.2806    35.490721    35.490721    35.490721    44703.804    1.8730295 
   70000     1526.384   -788.11305    -838.4247    50.311657   -774.03599    504.51917    35.490721    35.490721    35.490721    44703.804    1.8730295 
   71000    1439.1526   -788.11294   -835.54933    47.436393   -798.95339   -388.51978    35.490721    35.490721    35.490721    44703.804    1.8730295 
   72000    1521.0397   -788.11297   -838.24847    50.135503   -780.35301    278.11554    35.490721    35.490721    35.490721    44703.804    1.8730295 
   73000     1319.171    -788.1129   -831.59454    43.481639   -773.52755     522.7365    35.490721    35.490721    35.490721    44703.804    1.8730295 
   74000    1494.2344   -788.11288   -837.36484    49.251965   -802.04035    -499.1582    35.490721    35.490721    35.490721    44703.804    1.8730295 
   75000    1505.8448   -788.11293   -837.74759    49.634659   -815.60261   -985.22533    35.490721    35.490721    35.490721    44703.804    1.8730295 
   76000    1505.0982   -788.11295     -837.723     49.61005   -785.46331    94.962589    35.490721    35.490721    35.490721    44703.804    1.8730295 
   77000    1432.2043   -788.11297   -835.32033    47.207369    -771.0689    610.85617    35.490721    35.490721    35.490721    44703.804    1.8730295 
   78000    1375.2962   -788.11288   -833.44448    45.331602   -791.86398   -134.43869    35.490721    35.490721    35.490721    44703.804    1.8730295 
   79000    1439.5939   -788.11288   -835.56382    47.450939   -796.91029   -315.29749    35.490721    35.490721    35.490721    44703.804    1.8730295 
   80000    1499.8345   -788.11296   -837.54951     49.43655   -812.39981   -870.43642    35.490721    35.490721    35.490721    44703.804    1.8730295 
   81000    1492.7057   -788.11296   -837.31454    49.201575   -784.13181    142.68379    35.490721    35.490721    35.490721    44703.804    1.8730295 
   82000    1499.3645   -788.11304    -837.5341    49.421059    -774.9389    472.15917    35.490721    35.490721    35.490721    44703.804    1.8730295 
   83000    1467.4424   -788.11294    -836.4818    48.368864   -798.27313   -364.13944    35.490721    35.490721    35.490721    44703.804    1.8730295 
   84000     1537.151   -788.11302   -838.77957    50.666552   -790.53252   -86.714209    35.490721    35.490721    35.490721    44703.804    1.8730295 
   85000    1516.2767   -788.11304   -838.09154    49.978509   -801.37692   -475.37529    35.490721    35.490721    35.490721    44703.804    1.8730295 
   86000    1569.1015   -788.11293   -839.83262    51.719683   -795.54197   -266.25531    35.490721    35.490721    35.490721    44703.804    1.8730295 
   87000    1465.5072    -788.1129   -836.41797    48.305078   -792.83157   -169.11629    35.490721    35.490721    35.490721    44703.804    1.8730295 
   88000     1405.222   -788.11292   -834.43092    46.317994   -779.23754     318.0922    35.490721    35.490721    35.490721    44703.804    1.8730295 
   89000    1429.5219    -788.1129   -835.23185    47.118952   -764.67867    839.87873    35.490721    35.490721    35.490721    44703.804    1.8730295 
   90000    1377.8742   -788.11285   -833.52942    45.416576   -792.67624   -163.55119    35.490721    35.490721    35.490721    44703.804    1.8730295 
   91000    1451.4623   -788.11297   -835.95511    47.842138   -769.45651    668.64422    35.490721    35.490721    35.490721    44703.804    1.8730295 
   92000    1354.4793   -788.11289   -832.75834    44.645449   -799.73069   -416.38004    35.490721    35.490721    35.490721    44703.804    1.8730295 
   93000    1521.8911   -788.11292   -838.27648    50.163565   -790.45355   -83.887749    35.490721    35.490721    35.490721    44703.804    1.8730295 
   94000    1473.9321   -788.11295   -836.69572    48.582773    -795.0036   -246.95961    35.490721    35.490721    35.490721    44703.804    1.8730295 
   95000     1408.624   -788.11291   -834.54304    46.430129   -818.79203   -1099.5345    35.490721    35.490721    35.490721    44703.804    1.8730295 
   96000    1471.0668   -788.11297   -836.60129    48.488328   -787.32872    28.107032    35.490721    35.490721    35.490721    44703.804    1.8730295 
   97000    1498.7795   -788.11298   -837.51476    49.401777   -789.95658    -66.07413    35.490721    35.490721    35.490721    44703.804    1.8730295 
   98000    1421.7573   -788.11294   -834.97596     46.86302   -823.56031   -1270.4276    35.490721    35.490721    35.490721    44703.804    1.8730295 
   99000    1462.1113     -788.113   -836.30614    48.193142   -757.61033    1093.2102    35.490721    35.490721    35.490721    44703.804    1.8730295 
  100000    1525.2468   -788.11296   -838.38713    50.274173   -783.65956    159.60873    35.490721    35.490721    35.490721    44703.804    1.8730295 
Loop time of 4.15475 on 8 procs for 50000 steps with 256 atoms

Performance: 519.887 ns/day, 0.046 hours/ns, 12034.418 timesteps/s
89.2% CPU use with 8 MPI tasks x 1 OpenMP threads

MPI task timing breakdown:
Section |  min time  |  avg time  |  max time  |%varavg| %total
---------------------------------------------------------------
Pair    | 2.0841     | 2.4631     | 3.2311     |  22.7 | 59.28
Neigh   | 0.0059333  | 0.010883   | 0.020063   |   4.3 |  0.26
Comm    | 0.68011    | 1.4573     | 1.8466     |  29.7 | 35.08
Output  | 0.0067317  | 0.0067768  | 0.0070457  |   0.1 |  0.16
Modify  | 0.095324   | 0.10741    | 0.11698    |   1.7 |  2.59
Other   |            | 0.1093     |            |       |  2.63

Nlocal:    32 ave 57 max 23 min
Histogram: 2 2 2 1 0 0 0 0 0 1
Nghost:    185.25 ave 196 max 176 min
Histogram: 1 0 1 2 1 0 0 1 1 1
Neighs:    934.625 ave 1995 max 468 min
Histogram: 3 1 1 1 1 0 0 0 0 1

Total # of neighbors = 7477
Ave neighs/atom = 29.207
Neighbor list builds = 199
Dangerous builds = 0
System init for write_restart ...
Setting up Verlet run ...
  Unit style    : metal
  Current step  : 100000
  Time step     : 0.0005
Per MPI rank memory allocation (min/avg/max) = 4.947 | 4.947 | 4.947 Mbytes
Step Temp TotEng PotEng KinEng Enthalpy Press Volume Lx Ly Lz Density 
  100000    1525.2468   -788.11296   -838.38713    50.274173   -783.65956    159.60873    44703.804    35.490721    35.490721    35.490721    1.8730295 
  101000    1574.4165   -784.07005   -835.96492    51.894872   -802.98074   -677.75571    44703.804    35.490721    35.490721    35.490721    1.8730295 
  102000    1467.0042   -785.26895   -833.62337    48.354419   -783.65045    58.006754    44703.804    35.490721    35.490721    35.490721    1.8730295 
  103000    1600.1935   -779.17973   -831.92425    52.744518   -780.02324   -30.231316    44703.804    35.490721    35.490721    35.490721    1.8730295 
  104000    1555.3004   -787.37195   -838.63673    51.264781   -772.09225    547.62174    44703.804    35.490721    35.490721    35.490721    1.8730295 
  105000    1552.6972   -786.07425   -837.25323    51.178977   -757.16139    1036.2318    44703.804    35.490721    35.490721    35.490721    1.8730295 
  106000    1570.6605   -784.42939   -836.20046    51.771069   -795.66279   -402.60306    44703.804    35.490721    35.490721    35.490721    1.8730295 
  107000    1450.0042   -785.95496   -833.74904    47.794079   -786.82383   -31.140135    44703.804    35.490721    35.490721    35.490721    1.8730295 
  108000    1541.4216   -781.86459   -832.67191    50.807318    -798.8234   -607.80081    44703.804    35.490721    35.490721    35.490721    1.8730295 
  109000    1473.1787   -784.34654   -832.90448    48.557939   -781.44381     104.0336    44703.804    35.490721    35.490721    35.490721    1.8730295 
  110000    1468.5437   -787.73039   -836.13555    48.405163   -759.06832    1027.2437    44703.804    35.490721    35.490721    35.490721    1.8730295 
  111000    1442.4773   -788.05641   -835.60239    47.545979   -792.99362   -176.94875    44703.804    35.490721    35.490721    35.490721    1.8730295 
  112000    1412.3833   -789.11501   -835.66905    46.554041   -768.78779    728.52403    44703.804    35.490721    35.490721    35.490721    1.8730295 
  113000    1485.5782   -779.07149   -828.03813    48.966644    -818.1502   -1400.5741    44703.804    35.490721    35.490721    35.490721    1.8730295 
  114000    1511.4839   -784.26984   -834.09037     49.82053   -775.67212    308.14068    44703.804    35.490721    35.490721    35.490721    1.8730295 
  115000    1593.0657   -782.02927   -834.53884    52.509575     -782.706   -24.253947    44703.804    35.490721    35.490721    35.490721    1.8730295 
  116000    1464.1595   -793.12385   -841.38451    48.260654   -796.87395   -134.40293    44703.804    35.490721    35.490721    35.490721    1.8730295 
  117000    1522.1058   -785.89003   -836.06067    50.170641   -800.79801   -534.29928    44703.804    35.490721    35.490721    35.490721    1.8730295 
  118000    1451.3906   -790.17012   -838.00989    47.839775   -795.82263   -202.58515    44703.804    35.490721    35.490721    35.490721    1.8730295 
  119000    1437.2807   -789.38317   -836.75786    47.374694   -783.09798    225.25992    44703.804    35.490721    35.490721    35.490721    1.8730295 
  120000    1468.7995   -783.67979   -832.09339    48.413595   -777.64493    216.28854    44703.804    35.490721    35.490721    35.490721    1.8730295 
  121000    1393.5206   -790.12301   -836.05531    45.932303   -810.80264   -741.15442    44703.804    35.490721    35.490721    35.490721    1.8730295 
  122000    1553.8095   -789.06451   -840.28015    51.215639   -798.36479   -333.32035    44703.804    35.490721    35.490721    35.490721    1.8730295 
  123000    1394.6454   -793.78044   -839.74982    45.969378   -823.93877    -1080.869    44703.804    35.490721    35.490721    35.490721    1.8730295 
  124000    1338.4511   -794.34496   -838.46209    44.117138   -770.51739    853.97569    44703.804    35.490721    35.490721    35.490721    1.8730295 
  125000    1660.7579   -781.03185   -835.77265      54.7408   -787.42332   -229.06899    44703.804    35.490721    35.490721    35.490721    1.8730295 
  126000    1557.9465   -789.94592   -841.29792       51.352   -808.49449   -664.77748    44703.804    35.490721    35.490721    35.490721    1.8730295 
  127000    1440.4975   -791.22765   -838.70837    47.480723   -784.73069    232.84982    44703.804    35.490721    35.490721    35.490721    1.8730295 
  128000    1537.3877   -787.18765     -837.862    50.674353   -776.20232    393.71227    44703.804    35.490721    35.490721    35.490721    1.8730295 
  129000    1425.1632   -787.43167   -834.40696    46.975286   -803.31256   -569.16837    44703.804    35.490721    35.490721    35.490721    1.8730295 
  130000    1480.5122   -787.73953   -836.53919    48.799661   -776.00942    420.40492    44703.804    35.490721    35.490721    35.490721    1.8730295 
  131000    1479.4707    -786.5676   -835.33293    48.765332   -833.62048    -1686.367    44703.804    35.490721    35.490721    35.490721    1.8730295 
  132000    1522.6988   -790.42394   -840.61412    50.190187   -756.69673     1208.777    44703.804    35.490721    35.490721    35.490721    1.8730295 
  133000    1452.7355   -789.28235   -837.16646    47.884105   -797.15309   -282.08571    44703.804    35.490721    35.490721    35.490721    1.8730295 
  134000      1425.59   -794.05095   -841.04031    46.989351   -770.82703    832.34126    44703.804    35.490721    35.490721    35.490721    1.8730295 
  135000     1392.548   -791.59814   -837.49838    45.900245   -808.60411   -609.49117    44703.804    35.490721    35.490721    35.490721    1.8730295 
  136000    1404.7152   -797.01983   -843.32112    46.301291   -737.82476    2121.5407    44703.804    35.490721    35.490721    35.490721    1.8730295 
  137000    1463.5238   -788.52627   -836.76597    48.239701   -823.47226   -1252.4582    44703.804    35.490721    35.490721    35.490721    1.8730295 
  138000    1555.9395   -791.19067   -842.47651    51.285848   -818.54822   -980.48997    44703.804    35.490721    35.490721    35.490721    1.8730295 
  139000    1459.9451   -789.31987   -837.44161    48.121743   -791.39448   -74.353613    44703.804    35.490721    35.490721    35.490721    1.8730295 
  140000    1363.2868   -801.33119   -846.26695    44.935756    -808.5046   -257.09366    44703.804    35.490721    35.490721    35.490721    1.8730295 
  141000    1425.1211   -791.53723   -838.51113    46.973896   -828.79644   -1335.3635    44703.804    35.490721    35.490721    35.490721    1.8730295 
  142000    1438.6778     -787.455   -834.87575    47.420745   -782.12299    191.09824    44703.804    35.490721    35.490721    35.490721    1.8730295 
  143000     1434.067   -780.62692   -827.89568    47.268765   -793.92016   -476.42753    44703.804    35.490721    35.490721    35.490721    1.8730295 
  144000    1457.9923   -784.91459   -832.97196    48.057376   -754.72035    1082.1559    44703.804    35.490721    35.490721    35.490721    1.8730295 
  145000    1470.4935   -790.34331   -838.81274    48.469431   -787.99645    84.111234    44703.804    35.490721    35.490721    35.490721    1.8730295 
  146000    1537.1282   -790.21085   -840.87665      50.6658   -775.41224    530.37949    44703.804    35.490721    35.490721    35.490721    1.8730295 
  147000    1363.2521   -796.07557   -841.01019    44.934613   -822.37658   -942.62347    44703.804    35.490721    35.490721    35.490721    1.8730295 
  148000    1466.4648   -787.85249   -836.18913    48.336641   -753.66779    1225.1735    44703.804    35.490721    35.490721    35.490721    1.8730295 
  149000    1590.8097   -787.92607   -840.36128    52.435216   -790.31787   -85.721741    44703.804    35.490721    35.490721    35.490721    1.8730295 
  150000     1395.562   -788.54673   -834.54632    45.999589   -765.02713    842.93814    44703.804    35.490721    35.490721    35.490721    1.8730295 
  151000    1530.7863    -787.1202   -837.57696    50.456763   -795.35572   -295.15963    44703.804    35.490721    35.490721    35.490721    1.8730295 
  152000    1556.8636   -785.80596   -837.12226    51.316307   -817.40964   -1132.6703    44703.804    35.490721    35.490721    35.490721    1.8730295 
  153000    1542.8464   -790.35782    -841.2121     50.85428   -797.76331   -265.41141    44703.804    35.490721    35.490721    35.490721    1.8730295 
  154000    1428.5844   -789.61415   -836.70221    47.088053   -830.90432   -1479.8324    44703.804    35.490721    35.490721    35.490721    1.8730295 
  155000    1464.7366   -795.15433   -843.43401    48.279677   -785.42718    348.61931    44703.804    35.490721    35.490721    35.490721    1.8730295 
  156000    1421.8174   -788.60005   -835.46506    46.865002   -782.57369    215.98379    44703.804    35.490721    35.490721    35.490721    1.8730295 
  157000    1463.1502   -792.19856   -840.42595    48.227388    -828.2818    -1293.217    44703.804    35.490721    35.490721    35.490721    1.8730295 
  158000    1496.0681   -791.80523   -841.11764    49.312404   -789.09009    97.310194    44703.804    35.490721    35.490721    35.490721    1.8730295 
  159000    1364.8176   -793.96715   -838.95336    44.986212   -781.55519    444.84233    44703.804    35.490721    35.490721    35.490721    1.8730295 
  160000    1529.7664   -791.47794   -841.90109    50.423147   -786.30076    185.54942    44703.804    35.490721    35.490721    35.490721    1.8730295 
  161000    1463.8738    -791.7758   -840.02704    48.251237   -794.91778   -112.60796    44703.804    35.490721    35.490721    35.490721    1.8730295 
  162000    1413.2558   -789.27784   -835.86064      46.5828   -763.01781    941.15497    44703.804    35.490721    35.490721    35.490721    1.8730295 
  163000    1570.2199   -788.13639   -839.89294    51.756547   -795.07773   -248.77644    44703.804    35.490721    35.490721    35.490721    1.8730295 
  164000    1439.3412   -795.24354   -842.68615    47.442611   -770.90957    872.12536    44703.804    35.490721    35.490721    35.490721    1.8730295 
  165000     1511.112   -792.44914   -842.25741    49.808272   -794.62052   -77.822015    44703.804    35.490721    35.490721    35.490721    1.8730295 
  166000    1512.4448   -785.50106   -835.35326    49.852202   -800.37694   -533.14916    44703.804    35.490721    35.490721    35.490721    1.8730295 
  167000    1541.6757   -786.10838   -836.92407    50.815694   -748.18093    1359.3132    44703.804    35.490721    35.490721    35.490721    1.8730295 
  168000    1524.8254   -785.36549   -835.62578    50.260283   -820.78059   -1269.2707    44703.804    35.490721    35.490721    35.490721    1.8730295 
  169000    1588.1212    -779.6974     -832.044    52.346597   -779.43019    9.5768332    44703.804    35.490721    35.490721    35.490721    1.8730295 
  170000    1610.5524   -787.38105   -840.46701    53.085961   -753.76238    1204.8874    44703.804    35.490721    35.490721    35.490721    1.8730295 
  171000    1385.3855   -786.73521   -832.39937    45.664158   -810.16568   -839.74381    44703.804    35.490721    35.490721    35.490721    1.8730295 
  172000    1439.9942   -793.80156   -841.26569    47.464134   -782.01165     422.5484    44703.804    35.490721    35.490721    35.490721    1.8730295 
  173000    1333.9087   -790.91319    -834.8806    43.967414    -800.8547   -356.30194    44703.804    35.490721    35.490721    35.490721    1.8730295 
  174000    1440.8418   -789.08433    -836.5764    47.492072   -753.47259    1276.3184    44703.804    35.490721    35.490721    35.490721    1.8730295 
  175000      1311.43   -790.04868   -833.27517    43.226488   -797.45838   -265.56246    44703.804    35.490721    35.490721    35.490721    1.8730295 
  176000     1436.611    -790.3089   -837.66152    47.352619   -825.69863   -1268.3617    44703.804    35.490721    35.490721    35.490721    1.8730295 
  177000    1422.2038   -792.37477    -839.2525    46.877737    -794.1383   -63.204862    44703.804    35.490721    35.490721    35.490721    1.8730295 
  178000    1417.6489   -794.61332   -841.34092    46.727604   -810.01678   -552.05753    44703.804    35.490721    35.490721    35.490721    1.8730295 
  179000    1464.3191   -790.97859   -839.24451    48.265915   -758.15276    1176.4719    44703.804    35.490721    35.490721    35.490721    1.8730295 
  180000    1367.7389   -791.81272   -836.89522    45.082503   -807.35478   -557.02469    44703.804    35.490721    35.490721    35.490721    1.8730295 
  181000    1411.6191   -794.06762   -840.59647    46.528852   -809.92105   -568.18435    44703.804    35.490721    35.490721    35.490721    1.8730295 
  182000    1429.8113    -788.4367    -835.5652    47.128492    -776.0743    443.06622    44703.804    35.490721    35.490721    35.490721    1.8730295 
  183000    1433.4933    -788.8186   -836.06846    47.249856   -808.55433   -707.32518    44703.804    35.490721    35.490721    35.490721    1.8730295 
  184000    1428.2736   -790.84343   -837.92124    47.077809   -733.16925    2067.0322    44703.804    35.490721    35.490721    35.490721    1.8730295 
  185000    1595.3629   -784.16776   -836.75305    52.585295   -827.64402   -1558.1817    44703.804    35.490721    35.490721    35.490721    1.8730295 
  186000    1448.6136    -792.1244   -839.87264     47.74824   -776.16245    572.07339    44703.804    35.490721    35.490721    35.490721    1.8730295 
  187000     1422.301   -790.42341   -837.30436    46.880941   -840.56919   -1797.2159    44703.804    35.490721    35.490721    35.490721    1.8730295 
  188000    1481.0777   -789.67435   -838.49265    48.818301   -771.53366    650.15924    44703.804    35.490721    35.490721    35.490721    1.8730295 
  189000    1421.2471    -789.7509    -836.5971    46.846205   -772.19651    629.14596    44703.804    35.490721    35.490721    35.490721    1.8730295 
  190000    1486.4652   -787.50152    -836.4974    48.995881   -768.81102    669.86409    44703.804    35.490721    35.490721    35.490721    1.8730295 
  191000    1610.6109   -789.70358   -842.79147    53.087889   -791.78937   -74.754413    44703.804    35.490721    35.490721    35.490721    1.8730295 
  192000    1526.3488   -790.77116   -841.08166    50.310498   -828.22188   -1342.2271    44703.804    35.490721    35.490721    35.490721    1.8730295 
  193000    1486.4212   -788.20434   -837.19877    48.994431   -799.70471    -412.1711    44703.804    35.490721    35.490721    35.490721    1.8730295 
  194000     1545.892   -790.72432   -841.67899    50.954667    -775.8247    533.99984    44703.804    35.490721    35.490721    35.490721    1.8730295 
  195000     1368.887   -795.09873   -840.21907    45.120345   -761.94801     1188.116    44703.804    35.490721    35.490721    35.490721    1.8730295 
  196000    1437.7748   -793.88004   -841.27102    47.390979   -783.58545    368.95638    44703.804    35.490721    35.490721    35.490721    1.8730295 
  197000    1520.1812   -785.86914   -835.97635    50.107204   -794.93061   -324.76146    44703.804    35.490721    35.490721    35.490721    1.8730295 
  198000    1474.8704   -787.68621   -836.29991    48.613701   -792.18924   -161.38789    44703.804    35.490721    35.490721    35.490721    1.8730295 
  199000    1560.0862   -778.93421   -830.35674    51.422528   -763.89801    538.89481    44703.804    35.490721    35.490721    35.490721    1.8730295 
  200000    1534.6804   -794.76121   -845.34633    50.585118    -770.2969    876.79655    44703.804    35.490721    35.490721    35.490721    1.8730295 
  201000    1397.2944   -788.43349   -834.49018    46.056693   -776.70318    420.41216    44703.804    35.490721    35.490721    35.490721    1.8730295 
  202000    1440.2977   -791.70817   -839.18231    47.474139   -758.43867    1192.3729    44703.804    35.490721    35.490721    35.490721    1.8730295 
  203000    1431.8831   -788.41944   -835.61622     47.19678   -794.02651   -200.95625    44703.804    35.490721    35.490721    35.490721    1.8730295 
  204000    1416.4871   -794.52691   -841.21622    46.689307   -741.05136    1916.5545    44703.804    35.490721    35.490721    35.490721    1.8730295 
  205000    1492.9249   -783.99549   -833.20429      49.2088   -790.38844    -229.1222    44703.804    35.490721    35.490721    35.490721    1.8730295 
  206000    1445.9039   -791.03619   -838.69512    47.658925   -767.93574     827.9162    44703.804    35.490721    35.490721    35.490721    1.8730295 
  207000    1448.4526    -787.3643   -835.10724    47.742935   -814.83618   -984.58717    44703.804    35.490721    35.490721    35.490721    1.8730295 
  208000    1428.3952    -793.9172   -840.99902    47.081816   -782.59878    405.65028    44703.804    35.490721    35.490721    35.490721    1.8730295 
  209000    1485.9005   -787.77893    -836.7562    48.977268   -776.77569    394.35414    44703.804    35.490721    35.490721    35.490721    1.8730295 
  210000    1519.1063   -784.00535   -834.07712    50.071776   -808.17304   -866.16607    44703.804    35.490721    35.490721    35.490721    1.8730295 
  211000    1422.5163   -796.34891   -843.23695     46.88804   -805.11338   -314.11709    44703.804    35.490721    35.490721    35.490721    1.8730295 
  212000    1450.0256   -792.01484   -839.80962    47.794784   -831.07283   -1399.8315    44703.804    35.490721    35.490721    35.490721    1.8730295 
  213000    1504.3964   -788.55692   -838.14384    49.586916   -785.34185    115.22775    44703.804    35.490721    35.490721    35.490721    1.8730295 
  214000    1512.1933   -790.93806   -840.78197    49.843913   -748.45363    1522.6344    44703.804    35.490721    35.490721    35.490721    1.8730295 
  215000    1478.8556   -788.26538   -837.01044    48.745059   -802.75702   -519.37776    44703.804    35.490721    35.490721    35.490721    1.8730295 
  216000    1355.2105   -790.21748   -834.88703    44.669551    -804.6114   -515.87562    44703.804    35.490721    35.490721    35.490721    1.8730295 
  217000    1431.3198    -790.5467   -837.72492    47.178215   -810.21589   -704.94029    44703.804    35.490721    35.490721    35.490721    1.8730295 
  218000    1312.7553   -799.33455   -842.60471    43.270168   -802.90793   -128.06943    44703.804    35.490721    35.490721    35.490721    1.8730295 
  219000    1533.6205   -789.54059   -840.09077    50.550181   -788.23598    46.757108    44703.804    35.490721    35.490721    35.490721    1.8730295 
  220000    1430.3581   -793.52045   -840.66697    47.146515    -814.4191   -749.00406    44703.804    35.490721    35.490721    35.490721    1.8730295 
  221000    1412.4988   -789.68945    -836.2473    46.557849   -798.02374   -298.69931    44703.804    35.490721    35.490721    35.490721    1.8730295 
  222000    1481.4847   -791.51645   -840.34816    48.831715   -764.69135    961.40692    44703.804    35.490721    35.490721    35.490721    1.8730295 
  223000    1316.6879   -798.27701    -841.6768    43.399795   -815.06611   -601.71855    44703.804    35.490721    35.490721    35.490721    1.8730295 
  224000    1379.8988   -791.88997   -837.37328     45.48331   -810.61821   -671.21682    44703.804    35.490721    35.490721    35.490721    1.8730295 
  225000    1354.1996   -789.96784   -834.60407    44.636228   -801.03859   -396.77376    44703.804    35.490721    35.490721    35.490721    1.8730295 
  226000     1517.525   -788.10167   -838.12132    50.019652   -794.07916   -214.23235    44703.804    35.490721    35.490721    35.490721    1.8730295 
  227000    1453.7716   -789.90465   -837.82291    47.918256   -791.74098   -65.813692    44703.804    35.490721    35.490721    35.490721    1.8730295 
  228000    1500.5104   -789.26131   -838.72013    49.458827   -789.46412   -7.2687513    44703.804    35.490721    35.490721    35.490721    1.8730295 
  229000    1426.3945   -790.86673    -837.8826    47.015871   -804.59859   -492.14723    44703.804    35.490721    35.490721    35.490721    1.8730295 
  230000    1389.0675   -793.62178    -839.4073    45.785521    -828.6763   -1256.3479    44703.804    35.490721    35.490721    35.490721    1.8730295 
  231000    1258.6951   -798.78735   -840.27562    41.488272   -800.11607   -47.621196    44703.804    35.490721    35.490721    35.490721    1.8730295 
  232000    1339.7729   -798.06893   -842.22963    44.160708   -811.43544   -479.05364    44703.804    35.490721    35.490721    35.490721    1.8730295 
  233000    1380.7779   -796.56803   -842.08031    45.512284   -773.33573    832.64149    44703.804    35.490721    35.490721    35.490721    1.8730295 
  234000     1514.144   -788.07398   -837.98219    49.908209   -806.74196   -669.05739    44703.804    35.490721    35.490721    35.490721    1.8730295 
  235000    1437.4804   -790.37665   -837.75792    47.381275   -798.13683   -278.12354    44703.804    35.490721    35.490721    35.490721    1.8730295 
  236000    1302.6608   -793.91423   -836.85167    42.937441   -789.69139    151.34603    44703.804    35.490721    35.490721    35.490721    1.8730295 
  237000    1432.3582   -794.25498   -841.46742    47.212442    -802.2291   -285.79126    44703.804    35.490721    35.490721    35.490721    1.8730295 
  238000     1366.928   -793.09162    -838.1474    45.055774   -791.40365    60.496895    44703.804    35.490721    35.490721    35.490721    1.8730295 
  239000     1603.726   -787.05075    -839.9117    52.860954   -786.98863    2.2263942    44703.804    35.490721    35.490721    35.490721    1.8730295 
  240000    1448.9869   -793.26322   -841.02377    47.760545   -817.75004   -877.60329    44703.804    35.490721    35.490721    35.490721    1.8730295 
  241000    1487.4574   -789.35919   -838.38777    49.028585   -794.05611   -168.33693    44703.804    35.490721    35.490721    35.490721    1.8730295 
  242000     1325.031    -794.4824    -838.1572    43.674793   -788.47403    215.33899    44703.804    35.490721    35.490721    35.490721    1.8730295 
  243000    1371.3146   -792.18724    -837.3876    45.200364    -811.3886   -688.17336    44703.804    35.490721    35.490721    35.490721    1.8730295 
  244000     1314.865   -795.35492   -838.69462    43.339708   -785.87849    339.63355    44703.804    35.490721    35.490721    35.490721    1.8730295 
  245000    1524.6194   -787.65884   -837.91234    50.253494   -784.17671    124.79887    44703.804    35.490721    35.490721    35.490721    1.8730295 
  246000    1422.3191   -789.04405   -835.92559     46.88154   -768.57997    733.42881    44703.804    35.490721    35.490721    35.490721    1.8730295 
  247000    1430.1637   -789.22477   -836.36488    47.140109   -794.88018   -202.68895    44703.804    35.490721    35.490721    35.490721    1.8730295 
  248000     1435.273   -789.10109   -836.40961    47.308519   -814.22448   -900.41781    44703.804    35.490721    35.490721    35.490721    1.8730295 
  249000    1404.3259   -801.17906   -847.46752    46.288458   -805.81325   -166.08863    44703.804    35.490721    35.490721    35.490721    1.8730295 
  250000    1470.9826   -789.22154   -837.70709    48.485552   -806.90796   -633.87808    44703.804    35.490721    35.490721    35.490721    1.8730295 
  251000    1509.9377   -788.88201   -838.65158    49.769565   -759.45236    1054.7536    44703.804    35.490721    35.490721    35.490721    1.8730295 
  252000    1346.3953   -796.52905   -840.90804     44.37899   -794.38667    76.782331    44703.804    35.490721    35.490721    35.490721    1.8730295 
  253000    1493.1712     -794.503   -843.71992     49.21692   -803.52605   -323.38479    44703.804    35.490721    35.490721    35.490721    1.8730295 
  254000    1356.3492   -795.34348   -840.05056    44.707082   -792.82629    90.215508    44703.804    35.490721    35.490721    35.490721    1.8730295 
  255000    1427.2824   -795.03062   -842.07575    47.045135    -817.1892   -794.15967    44703.804    35.490721    35.490721    35.490721    1.8730295 
  256000    1524.2502   -790.64548    -840.8868    50.241323   -789.30178    48.158136    44703.804    35.490721    35.490721    35.490721    1.8730295 
  257000    1341.9419   -800.09554   -844.32774    44.232199   -758.55656    1488.7494    44703.804    35.490721    35.490721    35.490721    1.8730295 
  258000    1497.1925   -784.73597   -834.08544    49.349467   -793.84269   -326.38341    44703.804    35.490721    35.490721    35.490721    1.8730295 
  259000    1300.8774    -796.7725   -839.65116    42.878657   -784.93552    424.23558    44703.804    35.490721    35.490721    35.490721    1.8730295 
  260000    1436.4122   -793.19689   -840.54296    47.346066   -783.47324    348.49398    44703.804    35.490721    35.490721    35.490721    1.8730295 
  261000     1451.822   -793.35822   -841.21221    47.853995   -816.46724   -828.22336    44703.804    35.490721    35.490721    35.490721    1.8730295 
  262000    1429.6323   -799.84373   -846.96632    47.122591   -782.08481    636.47635    44703.804    35.490721    35.490721    35.490721    1.8730295 
  263000    1362.3575    -793.0821   -837.98723    44.905126   -790.17422    104.21805    44703.804    35.490721    35.490721    35.490721    1.8730295 
  264000    1468.6024   -789.63259   -838.03968    48.407098   -820.88441   -1120.0598    44703.804    35.490721    35.490721    35.490721    1.8730295 
  265000    1337.2128   -798.33796   -842.41428    44.076323   -778.64803    705.68381    44703.804    35.490721    35.490721    35.490721    1.8730295 
  266000    1302.5477   -795.20068    -838.1344    42.933715   -779.24669    571.78849    44703.804    35.490721    35.490721    35.490721    1.8730295 
  267000    1468.2266    -790.8111   -839.20581     48.39471   -811.43554   -739.17619    44703.804    35.490721    35.490721    35.490721    1.8730295 
  268000    1452.7362   -794.69341   -842.57754    47.884127   -779.85087    531.95429    44703.804    35.490721    35.490721    35.490721    1.8730295 
  269000    1455.4548    -789.7277   -837.70144    47.973736   -765.86271    855.31694    44703.804    35.490721    35.490721    35.490721    1.8730295 
  270000    1343.6796   -798.17427   -842.46375    44.289475   -796.89588    45.817507    44703.804    35.490721    35.490721    35.490721    1.8730295 
  271000    1375.4544   -799.79384   -845.13066    45.336815   -779.52197    726.54035    44703.804    35.490721    35.490721    35.490721    1.8730295 
  272000     1443.974   -797.12891   -844.72422    47.595314   -769.67178     984.0586    44703.804    35.490721    35.490721    35.490721    1.8730295 
  273000    1424.3369    -788.9477   -835.89575    46.948047   -807.69883   -672.03702    44703.804    35.490721    35.490721    35.490721    1.8730295 
  274000    1524.9272   -792.40426    -842.6679     50.26364   -762.43295    1074.1664    44703.804    35.490721    35.490721    35.490721    1.8730295 
  275000     1313.867   -794.06395   -837.37076    43.306813   -812.34442   -655.16891    44703.804    35.490721    35.490721    35.490721    1.8730295 
  276000    1429.5753   -792.93515   -840.05586    47.120714   -789.44667    125.02662    44703.804    35.490721    35.490721    35.490721    1.8730295 
  277000    1538.7943   -790.21888   -840.93959    50.720717   -763.39897    961.22058    44703.804    35.490721    35.490721    35.490721    1.8730295 
  278000    1340.0858   -798.20219   -842.37321    44.171021   -801.85757   -131.00819    44703.804    35.490721    35.490721    35.490721    1.8730295 
  279000    1428.0523   -792.86791   -839.93842    47.070512   -794.29612   -51.186718    44703.804    35.490721    35.490721    35.490721    1.8730295 
  280000    1486.2366   -791.68399   -840.67233    48.988346   -783.21664    303.46816    44703.804    35.490721    35.490721    35.490721    1.8730295 
  281000    1381.4821   -791.78313   -837.31862    45.535497   -779.37563    444.68253    44703.804    35.490721    35.490721    35.490721    1.8730295 
  282000    1507.2809   -793.80322   -843.48522    49.681992   -793.60517    7.0982383    44703.804    35.490721    35.490721    35.490721    1.8730295 
  283000    1492.2129   -790.04784   -839.23318    49.185333   -797.12641   -253.69464    44703.804    35.490721    35.490721    35.490721    1.8730295 
  284000     1496.411   -792.85361   -842.17731    49.323706   -792.76196    3.2846728    44703.804    35.490721    35.490721    35.490721    1.8730295 
  285000      1544.16   -794.38576   -845.28334    50.897577   -788.71975     203.0687    44703.804    35.490721    35.490721    35.490721    1.8730295 
  286000     1472.366   -789.95562   -838.48677    48.531152   -803.44291   -483.38198    44703.804    35.490721    35.490721    35.490721    1.8730295 
  287000    1460.8371   -792.78496   -840.93611    48.151145   -787.20218    200.08592    44703.804    35.490721    35.490721    35.490721    1.8730295 
  288000    1491.6867    -795.2154   -844.38339    49.167986   -793.78323    51.328868    44703.804    35.490721    35.490721    35.490721    1.8730295 
  289000    1420.8626   -794.18006   -841.01359     46.83353   -786.96311    258.65412    44703.804    35.490721    35.490721    35.490721    1.8730295 
  290000    1463.5553   -794.36001   -842.60075    48.240738   -774.13649    724.80762    44703.804    35.490721    35.490721    35.490721    1.8730295 
  291000    1374.2054   -792.64652   -837.94217    45.295647   -752.68991    1432.0382    44703.804    35.490721    35.490721    35.490721    1.8730295 
  292000    1342.4525    -798.0979   -842.34693    44.249029   -809.47209   -407.64916    44703.804    35.490721    35.490721    35.490721    1.8730295 
  293000    1468.7878   -792.17852   -840.59173    48.413211   -823.55245   -1124.4362    44703.804    35.490721    35.490721    35.490721    1.8730295 
  294000    1416.2833   -796.88638   -843.56897     46.68259   -786.89808    357.97905    44703.804    35.490721    35.490721    35.490721    1.8730295 
  295000    1335.6093    -800.1019   -844.12537    44.023467   -807.25817   -256.47937    44703.804    35.490721    35.490721    35.490721    1.8730295 
  296000    1459.1694   -793.30381   -841.39998    48.096175   -826.17822    -1178.213    44703.804    35.490721    35.490721    35.490721    1.8730295 
  297000    1349.1441    -795.6605    -840.1301    44.469594   -765.04236    1097.3486    44703.804    35.490721    35.490721    35.490721    1.8730295 
  298000    1436.2345   -793.77011   -841.11032    47.340209   -799.77026   -215.04423    44703.804    35.490721    35.490721    35.490721    1.8730295 
  299000    1444.6211   -794.99097   -842.60762    47.616642   -819.85998   -891.30078    44703.804    35.490721    35.490721    35.490721    1.8730295 
  300000    1432.9678   -794.26125   -841.49378    47.232534   -821.77935   -986.24401    44703.804    35.490721    35.490721    35.490721    1.8730295 
  301000     1268.847   -800.77222   -842.59512    41.822893   -802.68808   -68.663891    44703.804    35.490721    35.490721    35.490721    1.8730295 
  302000    1516.3444    -794.8862   -844.86694     49.98074   -792.48861    85.929021    44703.804    35.490721    35.490721    35.490721    1.8730295 
  303000    1293.2209   -795.05528   -837.68157    42.626289   -793.44964    57.545914    44703.804    35.490721    35.490721    35.490721    1.8730295 
  304000    1332.4398   -800.44577   -844.36477    43.918999   -811.60041   -399.78057    44703.804    35.490721    35.490721    35.490721    1.8730295 
  305000    1371.0529   -797.09633   -842.28807    45.191738   -814.98612   -641.16688    44703.804    35.490721    35.490721    35.490721    1.8730295 
  306000    1445.5622     -794.894   -842.54166    47.647664   -809.27467   -515.40096    44703.804    35.490721    35.490721    35.490721    1.8730295 
  307000    1382.2322    -791.5403   -837.10052    45.560221   -813.77775   -796.98628    44703.804    35.490721    35.490721    35.490721    1.8730295 
  308000    1421.1092   -790.38833   -837.22999     46.84166   -781.67766    312.18916    44703.804    35.490721    35.490721    35.490721    1.8730295 
  309000    1363.1152   -796.94307   -841.87317    44.930098   -793.02274    140.50401    44703.804    35.490721    35.490721    35.490721    1.8730295 
  310000     1484.286   -792.23403   -841.15808     48.92405   -813.07377   -746.89289    44703.804    35.490721    35.490721    35.490721    1.8730295 
  311000    1287.8767   -802.04625   -844.49639    42.450137   -812.88528   -388.46897    44703.804    35.490721    35.490721    35.490721    1.8730295 
  312000    1295.7477   -799.95657   -842.66615    42.709575   -800.05757   -3.6197082    44703.804    35.490721    35.490721    35.490721    1.8730295 
  313000    1431.9062      -791.71   -838.90755    47.197543   -808.91675    -616.6866    44703.804    35.490721    35.490721    35.490721    1.8730295 
  314000    1402.3133   -795.81599   -842.03811    46.222121   -777.76381    646.98698    44703.804    35.490721    35.490721    35.490721    1.8730295 
  315000    1500.1909   -790.04992   -839.49822    49.448297   -755.80199      1227.44    44703.804    35.490721    35.490721    35.490721    1.8730295 
  316000    1353.2172   -801.21674   -845.82059    44.603848   -821.32581    -720.7056    44703.804    35.490721    35.490721    35.490721    1.8730295 
  317000    1365.0047   -796.28195   -841.27433    44.992379    -814.6442   -658.09966    44703.804    35.490721    35.490721    35.490721    1.8730295 
  318000    1432.6744   -792.22295   -839.44581    47.222864   -807.71415   -555.20196    44703.804    35.490721    35.490721    35.490721    1.8730295 
  319000    1399.0811   -797.94838   -844.06397    46.115583   -805.98418   -288.00159    44703.804    35.490721    35.490721    35.490721    1.8730295 
  320000    1371.5676   -797.11647   -842.32518    45.208703   -807.53156   -373.27504    44703.804    35.490721    35.490721    35.490721    1.8730295 
  321000    1336.4007   -798.91906   -842.96861    44.049552   -779.03486    712.64626    44703.804    35.490721    35.490721    35.490721    1.8730295 
  322000     1336.433   -800.71766   -844.76828    44.050619   -804.62144   -139.91055    44703.804    35.490721    35.490721    35.490721    1.8730295 
  323000    1293.5007   -793.10116   -835.73667    42.635513   -780.46846    452.75376    44703.804    35.490721    35.490721    35.490721    1.8730295 
  324000    1425.7297   -796.33406   -843.32802    46.993957   -769.12463    975.18121    44703.804    35.490721    35.490721    35.490721    1.8730295 
  325000    1418.8601   -797.45148     -844.219    46.767524   -800.56916   -111.73741    44703.804    35.490721    35.490721    35.490721    1.8730295 
  326000    1293.1245    -796.9156   -839.53871    42.623112   -803.64169   -241.06205    44703.804    35.490721    35.490721    35.490721    1.8730295 
  327000    1408.1758   -792.10986   -838.52522    46.415356   -787.16687    177.15612    44703.804    35.490721    35.490721    35.490721    1.8730295 
  328000    1368.2357   -798.60069   -843.69956    45.098878   -785.46507    470.77822    44703.804    35.490721    35.490721    35.490721    1.8730295 
  329000    1363.3238   -795.60374   -840.54071    44.936975   -801.81618   -222.65279    44703.804    35.490721    35.490721    35.490721    1.8730295 
  330000    1375.8313   -802.72105   -848.07029    45.349239   -779.41495    835.28645    44703.804    35.490721    35.490721    35.490721    1.8730295 
  331000    1457.9034   -791.37531   -839.42975    48.054444    -822.9805   -1132.7246    44703.804    35.490721    35.490721    35.490721    1.8730295 
  332000    1373.3035    -796.4094   -841.67532    45.265919   -800.29235   -139.16393    44703.804    35.490721    35.490721    35.490721    1.8730295 
  333000    1476.3564   -795.51094   -844.17362    48.662682   -774.52081    752.28241    44703.804    35.490721    35.490721    35.490721    1.8730295 
  334000    1294.3437    -795.8212    -838.4845    42.663298    -806.3421   -377.06694    44703.804    35.490721    35.490721    35.490721    1.8730295 
  335000    1427.8103   -791.23601   -838.29855    47.062536   -783.43361    279.63664    44703.804    35.490721    35.490721    35.490721    1.8730295 
  336000    1369.0839   -800.01827   -845.14511    45.126835   -809.07223   -324.49222    44703.804    35.490721    35.490721    35.490721    1.8730295 
  337000    1490.9919   -796.52922    -845.6743    49.145085   -761.28911    1262.9994    44703.804    35.490721    35.490721    35.490721    1.8730295 
  338000    1379.2573   -799.96739   -845.42955    45.462166   -820.26776   -727.56176    44703.804    35.490721    35.490721    35.490721    1.8730295 
  339000    1306.3726   -801.17348   -844.23327    43.059788   -815.99278   -531.12085    44703.804    35.490721    35.490721    35.490721    1.8730295 
  340000    1358.5555   -801.14573   -845.92553    44.779807    -792.1941    320.82455    44703.804    35.490721    35.490721    35.490721    1.8730295 
  341000    1444.3852   -794.35269   -841.96156    47.608867   -789.00158    191.78315    44703.804    35.490721    35.490721    35.490721    1.8730295 
  342000    1428.1711    -795.5762   -842.65063    47.074428   -795.97983   -14.466082    44703.804    35.490721    35.490721    35.490721    1.8730295 
  343000    1509.0606   -793.44274   -843.18339    49.740654   -809.62052   -579.80874    44703.804    35.490721    35.490721    35.490721    1.8730295 
  344000    1368.5684   -802.57983   -847.68968    45.109846   -803.62688   -37.526048    44703.804    35.490721    35.490721    35.490721    1.8730295 
  345000    1469.5564   -794.02237   -842.46091    48.438544   -812.61458   -666.34162    44703.804    35.490721    35.490721    35.490721    1.8730295 
  346000    1507.5139    -793.4616   -843.15128    49.689675   -820.07293   -953.74539    44703.804    35.490721    35.490721    35.490721    1.8730295 
  347000    1364.7493   -796.00927   -840.99323    44.983963   -770.65368    908.74001    44703.804    35.490721    35.490721    35.490721    1.8730295 
  348000    1406.1679   -795.25449   -841.60366    46.349173   -753.95991    1479.9904    44703.804    35.490721    35.490721    35.490721    1.8730295 
  349000    1405.8359   -793.05698   -839.39521    46.338232   -804.89512   -424.27694    44703.804    35.490721    35.490721    35.490721    1.8730295 
  350000    1303.4478   -793.74945   -836.71283    42.963382   -759.84552    1215.1107    44703.804    35.490721    35.490721    35.490721    1.8730295 
  351000    1407.4202   -797.47751   -843.86796    46.390451   -792.37456    182.88894    44703.804    35.490721    35.490721    35.490721    1.8730295 
  352000     1330.544   -798.98801   -842.84452    43.856509   -822.45818   -841.16668    44703.804    35.490721    35.490721    35.490721    1.8730295 
  353000    1424.3285   -792.89696   -839.84473    46.947773    -775.1938    634.47793    44703.804    35.490721    35.490721    35.490721    1.8730295 
  354000    1353.6705   -797.51056   -842.12935    44.618789    -799.0234   -54.219709    44703.804    35.490721    35.490721    35.490721    1.8730295 
  355000    1378.5345   -795.86164   -841.29998     45.43834   -800.09615   -151.76417    44703.804    35.490721    35.490721    35.490721    1.8730295 
  356000     1341.416   -796.72365   -840.93851    44.214865   -801.06685   -155.65964    44703.804    35.490721    35.490721    35.490721    1.8730295 
  357000    1454.3365   -795.45426   -843.39114    47.936876   -767.57403    999.22243    44703.804    35.490721    35.490721    35.490721    1.8730295 
  358000     1292.761   -804.53955   -847.15068    42.611131     -810.696    -220.6459    44703.804    35.490721    35.490721    35.490721    1.8730295 
  359000    1411.8527   -799.32553   -845.86209    46.536554   -810.18967    -389.3689    44703.804    35.490721    35.490721    35.490721    1.8730295 
  360000    1440.0462    -797.2467   -844.71254    47.465847   -811.33753    -505.0131    44703.804    35.490721    35.490721    35.490721    1.8730295 
  361000    1317.4376   -794.95161   -838.37612    43.424505   -760.92519    1219.5012    44703.804    35.490721    35.490721    35.490721    1.8730295 
  362000    1425.3154   -803.06895   -850.04925      46.9803    -801.0841    71.136439    44703.804    35.490721    35.490721    35.490721    1.8730295 
  363000    1481.6702   -793.88805   -842.72588    48.837831   -824.03693   -1080.5305    44703.804    35.490721    35.490721    35.490721    1.8730295 
  364000     1413.188   -795.10557   -841.68613    46.580567   -777.58708    627.85952    44703.804    35.490721    35.490721    35.490721    1.8730295 
  365000    1285.5367   -798.98877   -841.36178     42.37301   -791.12163    281.95672    44703.804    35.490721    35.490721    35.490721    1.8730295 
  366000     1364.795   -801.06302   -846.04848    44.985468   -808.71461   -274.23167    44703.804    35.490721    35.490721    35.490721    1.8730295 
  367000    1366.4749   -800.40324   -845.44408     45.04084   -789.15693    403.06575    44703.804    35.490721    35.490721    35.490721    1.8730295 
  368000    1467.3227   -793.19115   -841.55606    48.364917   -785.51549    275.09414    44703.804    35.490721    35.490721    35.490721    1.8730295 
  369000    1446.9507   -794.91664   -842.61007    47.693429     -787.073    281.11458    44703.804    35.490721    35.490721    35.490721    1.8730295 
  370000    1471.6731   -796.00188   -844.51019    48.508311   -786.24512    349.68052    44703.804    35.490721    35.490721    35.490721    1.8730295 
  371000    1325.6136   -798.46224   -842.15624    43.693997    -833.1837    -1244.411    44703.804    35.490721    35.490721    35.490721    1.8730295 
  372000    1393.9856   -797.68681   -843.63444     45.94763   -784.77675    462.69432    44703.804    35.490721    35.490721    35.490721    1.8730295 
  373000    1273.4149   -799.24737   -841.22082    41.973458   -806.65881   -265.62474    44703.804    35.490721    35.490721    35.490721    1.8730295 
  374000    1417.9786   -797.46759   -844.20606    46.738469   -827.77057   -1086.0534    44703.804    35.490721    35.490721    35.490721    1.8730295 
  375000    1446.5419   -800.12544   -847.80539    47.679955   -824.52076   -874.32401    44703.804    35.490721    35.490721    35.490721    1.8730295 
  376000    1348.8133   -793.26701    -837.7257    44.458688   -813.03155   -708.35784    44703.804    35.490721    35.490721    35.490721    1.8730295 
  377000    1432.3133   -797.99778   -845.20874     47.21096   -761.74353     1299.346    44703.804    35.490721    35.490721    35.490721    1.8730295 
  378000     1327.792   -800.59611   -844.36191    43.765798   -797.02269    128.07083    44703.804    35.490721    35.490721    35.490721    1.8730295 
  379000    1385.8377   -798.55365   -844.23272    45.679063   -802.19719   -130.58378    44703.804    35.490721    35.490721    35.490721    1.8730295 
  380000    1485.5904   -792.41317   -841.38021    48.967045   -778.95582    482.30908    44703.804    35.490721    35.490721    35.490721    1.8730295 
  381000     1353.191   -803.14092   -847.74391    44.602985   -826.00012   -819.26953    44703.804    35.490721    35.490721    35.490721    1.8730295 
  382000    1370.1791   -797.73304   -842.89598    45.162936   -807.54444   -351.63862    44703.804    35.490721    35.490721    35.490721    1.8730295 
  383000    1495.4073   -796.87248    -846.1631    49.290625   -830.32156   -1198.8091    44703.804    35.490721    35.490721    35.490721    1.8730295 
  384000    1513.0141   -794.81158   -844.68255    49.870968   -780.64375    507.77241    44703.804    35.490721    35.490721    35.490721    1.8730295 
  385000    1488.2427    -798.2613   -847.31577     49.05447   -760.34885    1358.7757    44703.804    35.490721    35.490721    35.490721    1.8730295 
  386000    1323.9685   -800.95259   -844.59236    43.639773   -830.16803   -1047.0764    44703.804    35.490721    35.490721    35.490721    1.8730295 
  387000    1308.2162   -805.21233   -848.33288    43.120555   -804.92292    10.372442    44703.804    35.490721    35.490721    35.490721    1.8730295 
  388000    1345.0947   -791.39505   -835.73117    44.336121   -789.07271    83.232423    44703.804    35.490721    35.490721    35.490721    1.8730295 
  389000    1403.8484   -798.26102   -844.53374    46.272721   -829.08108   -1104.5855    44703.804    35.490721    35.490721    35.490721    1.8730295 
  390000    1314.0429   -799.80229   -843.11491    43.312612   -798.11836    60.351809    44703.804    35.490721    35.490721    35.490721    1.8730295 
  391000    1267.9022   -801.92968   -843.72143    41.791751   -808.08913   -220.75358    44703.804    35.490721    35.490721    35.490721    1.8730295 
  392000    1232.1272   -801.83145   -842.44401    40.612559   -793.10902    312.61058    44703.804    35.490721    35.490721    35.490721    1.8730295 
  393000    1444.6331   -794.60057   -842.21761     47.61704   -806.59733   -429.96173    44703.804    35.490721    35.490721    35.490721    1.8730295 
  394000    1456.6664   -799.75365   -847.76732    48.013672   -769.27585    1092.3192    44703.804    35.490721    35.490721    35.490721    1.8730295 
  395000    1433.1971   -797.95626   -845.19635    47.240093    -840.8078   -1535.7918    44703.804    35.490721    35.490721    35.490721    1.8730295 
  396000     1384.303   -797.72379   -843.35227    45.628478    -762.8074    1251.3972    44703.804    35.490721    35.490721    35.490721    1.8730295 
  397000    1352.0699    -796.1348   -840.70083    44.566032   -793.85889    81.568137    44703.804    35.490721    35.490721    35.490721    1.8730295 
  398000    1294.7879   -800.64718   -843.32512     42.67794   -822.41277   -780.07496    44703.804    35.490721    35.490721    35.490721    1.8730295 
  399000    1384.1301    -801.5479   -847.17068    45.622778   -780.06107    770.08408    44703.804    35.490721    35.490721    35.490721    1.8730295 
  400000    1387.2776   -801.62575   -847.35227    45.726526   -815.33197   -491.22869    44703.804    35.490721    35.490721    35.490721    1.8730295 
  401000    1471.8921   -794.60638   -843.12191    48.515532   -834.20413   -1419.1765    44703.804    35.490721    35.490721    35.490721    1.8730295 
  402000    1333.5677   -802.10721   -846.06338    43.956173    -794.6703    266.53757    44703.804    35.490721    35.490721    35.490721    1.8730295 
  403000    1288.0139    -798.0173   -840.47196     42.45466   -803.32402   -190.19201    44703.804    35.490721    35.490721    35.490721    1.8730295 
  404000    1383.6974   -796.45604   -842.06456    45.608516   -821.22253   -887.62654    44703.804    35.490721    35.490721    35.490721    1.8730295 
  405000    1298.5369   -805.70877   -848.51028    42.801511   -807.27923    -56.28488    44703.804    35.490721    35.490721    35.490721    1.8730295 
  406000    1424.0272   -798.08055   -845.01839     46.93784   -772.73915    908.23142    44703.804    35.490721    35.490721    35.490721    1.8730295 
  407000    1440.7622    -798.3106   -845.80005    47.489449   -776.24957    790.66363    44703.804    35.490721    35.490721    35.490721    1.8730295 
  408000    1332.3748   -799.74906   -843.66592    43.916855    -793.9073    209.36791    44703.804    35.490721    35.490721    35.490721    1.8730295 
  409000    1376.8284   -799.32212   -844.70422    45.382104   -787.38003     428.0023    44703.804    35.490721    35.490721    35.490721    1.8730295 
  410000    1317.4211   -801.44414    -844.8681    43.423962   -790.84977    379.70032    44703.804    35.490721    35.490721    35.490721    1.8730295 
  411000    1381.3862   -800.86844   -846.40078    45.532337   -801.98075   -39.865059    44703.804    35.490721    35.490721    35.490721    1.8730295 
  412000    1434.8083    -796.6506    -843.9438    47.293199   -816.51644   -711.98811    44703.804    35.490721    35.490721    35.490721    1.8730295 
  413000     1480.861   -795.37017   -844.18133    48.811158   -750.37885     1612.481    44703.804    35.490721    35.490721    35.490721    1.8730295 
  414000    1352.0871   -797.29296   -841.85956    44.566599   -826.27844   -1038.8346    44703.804    35.490721    35.490721    35.490721    1.8730295 
  415000    1351.0459   -797.50508   -842.03736    44.532279   -790.48429     251.6237    44703.804    35.490721    35.490721    35.490721    1.8730295 
  416000     1251.134   -804.78027   -846.01932     41.23905   -788.36388    588.36041    44703.804    35.490721    35.490721    35.490721    1.8730295 
  417000    1279.1424   -799.33962   -841.50187    42.162244   -816.80812   -626.06803    44703.804    35.490721    35.490721    35.490721    1.8730295 
  418000     1352.547    -799.2984   -843.88015    44.581757   -798.99547    10.856864    44703.804    35.490721    35.490721    35.490721    1.8730295 
  419000    1198.3062   -803.51608   -843.01385    39.497774   -797.32298    221.95953    44703.804    35.490721    35.490721    35.490721    1.8730295 
[...]
 2437000      337.153   -891.18938   -902.30239    11.113014   -884.89303     225.6599    44703.804    35.490721    35.490721    35.490721    1.8730295 
 2438000    346.92773   -891.68975   -903.12495    11.435202   -882.18718    340.57053    44703.804    35.490721    35.490721    35.490721    1.8730295 
 2439000    350.21564   -892.38857   -903.93214    11.543576   -887.29023    182.72358    44703.804    35.490721    35.490721    35.490721    1.8730295 
 2440000    333.43928   -892.12064   -903.11124    10.990604   -895.50436    -121.2718    44703.804    35.490721    35.490721    35.490721    1.8730295 
 2441000    321.34632   -892.06608   -902.65808    10.592004   -893.05261   -35.356938    44703.804    35.490721    35.490721    35.490721    1.8730295 
 2442000    322.47838   -891.60332   -902.23264    10.629319    -896.8604   -188.41288    44703.804    35.490721    35.490721    35.490721    1.8730295 
 2443000    339.62959   -892.68051   -903.87515    11.194645   -888.20806    160.29162    44703.804    35.490721    35.490721    35.490721    1.8730295 
 2444000    345.17304   -892.35435   -903.73172    11.377365   -890.73873    57.903538    44703.804    35.490721    35.490721    35.490721    1.8730295 
 2445000    321.59686   -892.81971   -903.41997    10.600262   -905.49632    -454.3275    44703.804    35.490721    35.490721    35.490721    1.8730295 
 2446000    317.49381   -893.69162   -904.15664    10.465021   -905.26438   -414.76545    44703.804    35.490721    35.490721    35.490721    1.8730295 
 2447000    308.01235   -893.51796   -903.67046    10.152499   -901.18668   -274.84557    44703.804    35.490721    35.490721    35.490721    1.8730295 
 2448000    333.50163   -892.56613   -903.55879     10.99266   -875.74447    602.88524    44703.804    35.490721    35.490721    35.490721    1.8730295 
 2449000    338.59233   -892.55132   -903.71178    11.160456   -886.97375    199.89918    44703.804    35.490721    35.490721    35.490721    1.8730295 
 2450000    344.97353   -892.17927   -903.55006    11.370789   -881.22195     392.7084    44703.804    35.490721    35.490721    35.490721    1.8730295 
 2451000    317.68024   -892.81853    -903.2897    10.471166   -899.85461   -252.17163    44703.804    35.490721    35.490721    35.490721    1.8730295 
 2452000    349.14583   -891.64433   -903.15264    11.508313   -894.69099   -109.19162    44703.804    35.490721    35.490721    35.490721    1.8730295 
 2453000    355.98754    -892.4736   -904.20742    11.733825   -893.66227   -42.601705    44703.804    35.490721    35.490721    35.490721    1.8730295 
 2454000    340.33816   -892.16101   -903.37901    11.218001   -889.12213    108.91296    44703.804    35.490721    35.490721    35.490721    1.8730295 
 2455000    302.49546   -893.84659   -903.81725    9.9706548    -882.3804    410.94632    44703.804    35.490721    35.490721    35.490721    1.8730295 
 2456000    317.29443   -893.29001   -903.74846    10.458449    -895.1303   -65.955632    44703.804    35.490721    35.490721    35.490721    1.8730295 
 2457000    328.72666   -892.36144   -903.19671     10.83527   -891.41531    33.908972    44703.804    35.490721    35.490721    35.490721    1.8730295 
 2458000    327.64149   -892.25689   -903.05639    10.799502   -901.89698   -345.49921    44703.804    35.490721    35.490721    35.490721    1.8730295 
 2459000    308.61969   -893.64554   -903.81806    10.172518   -893.72882   -2.9846079    44703.804    35.490721    35.490721    35.490721    1.8730295 
 2460000     338.4021   -892.43674   -903.59092    11.154186   -895.21582   -99.601858    44703.804    35.490721    35.490721    35.490721    1.8730295 
 2461000    294.12058   -893.64421   -903.33882    9.6946075   -890.41328      115.796    44703.804    35.490721    35.490721    35.490721    1.8730295 
 2462000    317.69518   -893.29107   -903.76273    10.471658   -899.83249   -234.44316    44703.804    35.490721    35.490721    35.490721    1.8730295 
 2463000    307.40555   -894.58347   -904.71596    10.132498   -888.21529    228.23438    44703.804    35.490721    35.490721    35.490721    1.8730295 
 2464000    299.12347   -893.33521   -903.19472    9.8595095   -891.50101    65.737433    44703.804    35.490721    35.490721    35.490721    1.8730295 
 2465000    294.24349   -893.60957   -903.30823    9.6986589   -897.03975   -122.93716    44703.804    35.490721    35.490721    35.490721    1.8730295 
 2466000    326.36391   -893.17626   -903.93365    10.757391   -897.82983   -166.78306    44703.804    35.490721    35.490721    35.490721    1.8730295 
 2467000    299.55344   -894.04438   -903.91806     9.873682   -889.47019    163.93842    44703.804    35.490721    35.490721    35.490721    1.8730295 
 2468000    307.34143   -893.37102    -903.5014    10.130385   -891.39707    70.745943    44703.804    35.490721    35.490721    35.490721    1.8730295 
 2469000    351.36056   -891.73152   -903.31283    11.581314   -884.00748    276.82806    44703.804    35.490721    35.490721    35.490721    1.8730295 
 2470000    302.16403   -894.75296   -904.71269    9.9597305    -882.9515    422.96206    44703.804    35.490721    35.490721    35.490721    1.8730295 
 2471000    317.59569   -893.68544   -904.15382    10.468378   -886.69727    250.45479    44703.804    35.490721    35.490721    35.490721    1.8730295 
 2472000    331.30099   -892.32231   -903.24243    10.920124   -892.44954   -4.5600909    44703.804    35.490721    35.490721    35.490721    1.8730295 
 2473000    315.14557   -893.42663   -903.81425    10.387619   -912.29262   -676.15352    44703.804    35.490721    35.490721    35.490721    1.8730295 
 2474000    316.86218   -894.22192   -904.66612    10.444201   -907.37583   -471.43364    44703.804    35.490721    35.490721    35.490721    1.8730295 
 2475000    294.87575   -894.38083   -904.10033    9.7194988     -880.033    514.22349    44703.804    35.490721    35.490721    35.490721    1.8730295 
 2476000    332.11183   -892.82652   -903.77337     10.94685   -895.19882   -85.022774    44703.804    35.490721    35.490721    35.490721    1.8730295 
 2477000    315.31978   -894.19289   -904.58625    10.393362   -907.55624   -478.94032    44703.804    35.490721    35.490721    35.490721    1.8730295 
 2478000    297.17023   -895.12753   -904.92266     9.795128   -908.26973   -471.01414    44703.804    35.490721    35.490721    35.490721    1.8730295 
 2479000    336.25946   -893.03524   -904.11881    11.083561   -892.00871    36.790719    44703.804    35.490721    35.490721    35.490721    1.8730295 
 2480000    309.91052   -894.10293   -904.31799    10.215065   -884.62878    339.55186    44703.804    35.490721    35.490721    35.490721    1.8730295 
 2481000    319.12414   -893.11834    -903.6371    10.518758   -899.89084   -242.72526    44703.804    35.490721    35.490721    35.490721    1.8730295 
 2482000     308.8925   -893.28935   -903.47086     10.18151   -887.97198    190.57377    44703.804    35.490721    35.490721    35.490721    1.8730295 
 2483000     289.9217    -894.6857   -904.24191    9.5562068   -896.68181   -71.540121    44703.804    35.490721    35.490721    35.490721    1.8730295 
 2484000    308.37166   -893.56183   -903.72618    10.164342   -893.98486    -15.16101    44703.804    35.490721    35.490721    35.490721    1.8730295 
 2485000     329.1782   -891.52568   -902.37583    10.850154   -899.82849   -297.57122    44703.804    35.490721    35.490721    35.490721    1.8730295 
 2486000    311.86996   -892.78054   -903.06019    10.279651   -882.66826    362.42242    44703.804    35.490721    35.490721    35.490721    1.8730295 
 2487000    294.97647   -894.42183   -904.14465    9.7228187   -900.85799   -230.67086    44703.804    35.490721    35.490721    35.490721    1.8730295 
 2488000    315.86081    -893.9815    -904.3927    10.411195    -895.8483   -66.905795    44703.804    35.490721    35.490721    35.490721    1.8730295 
 2489000    309.99544   -893.71583    -903.9337    10.217864   -903.92627   -365.94009    44703.804    35.490721    35.490721    35.490721    1.8730295 
 2490000    312.53828   -893.59067   -903.89235     10.30168   -895.25295   -59.575626    44703.804    35.490721    35.490721    35.490721    1.8730295 
 2491000    299.76173   -894.59355    -904.4741    9.8805474   -881.90329    454.81664    44703.804    35.490721    35.490721    35.490721    1.8730295 
 2492000      299.086   -893.62829   -903.48657    9.8582744   -876.43098    616.34865    44703.804    35.490721    35.490721    35.490721    1.8730295 
 2493000    267.06418   -895.07319   -903.87598    8.8027923   -905.64749    -378.9812    44703.804    35.490721    35.490721    35.490721    1.8730295 
 2494000    313.19414   -894.50733   -904.83063    10.323297   -918.57325    -862.5182    44703.804    35.490721    35.490721    35.490721    1.8730295 
 2495000      309.959   -894.16904   -904.38571    10.216663   -886.54364    273.29299    44703.804    35.490721    35.490721    35.490721    1.8730295 
 2496000    306.97629   -894.49332   -904.61167    10.118349   -881.26587    474.06956    44703.804    35.490721    35.490721    35.490721    1.8730295 
 2497000    291.67009   -893.69632   -903.31016     9.613836   -891.18449    90.023391    44703.804    35.490721    35.490721    35.490721    1.8730295 
 2498000    290.24333   -894.43846   -904.00527    9.5668084   -908.67661   -510.29271    44703.804    35.490721    35.490721    35.490721    1.8730295 
 2499000    294.96134   -894.42941   -904.15173    9.7223202   -896.05377   -58.216831    44703.804    35.490721    35.490721    35.490721    1.8730295 
 2500000    294.36562   -893.93658   -903.63927    9.7026842    -905.6873   -421.14362    44703.804    35.490721    35.490721    35.490721    1.8730295 
Loop time of 204.716 on 8 procs for 2400000 steps with 256 atoms

Performance: 506.458 ns/day, 0.047 hours/ns, 11723.563 timesteps/s
89.9% CPU use with 8 MPI tasks x 1 OpenMP threads

MPI task timing breakdown:
Section |  min time  |  avg time  |  max time  |%varavg| %total
---------------------------------------------------------------
Pair    | 98.195     | 120.25     | 155.59     | 164.1 | 58.74
Neigh   | 0.1602     | 0.31768    | 0.56222    |  22.8 |  0.16
Comm    | 32.252     | 67.166     | 90.503     | 219.1 | 32.81
Output  | 0.3143     | 0.31634    | 0.32912    |   0.9 |  0.15
Modify  | 10.13      | 11.588     | 12.393     |  21.7 |  5.66
Other   |            | 5.075      |            |       |  2.48

Nlocal:    32 ave 49 max 21 min
Histogram: 1 2 1 1 0 0 2 0 0 1
Nghost:    187.25 ave 198 max 175 min
Histogram: 2 0 0 0 2 0 1 1 1 1
Neighs:    1030 ave 1992 max 413 min
Histogram: 2 2 0 1 0 0 1 1 0 1

Total # of neighbors = 8240
Ave neighs/atom = 32.1875
Neighbor list builds = 5755
Dangerous builds = 0
System init for write_restart ...
Setting up Verlet run ...
  Unit style    : metal
  Current step  : 2500000
  Time step     : 0.0005
Per MPI rank memory allocation (min/avg/max) = 4.947 | 4.947 | 4.947 Mbytes
Step Temp TotEng PotEng KinEng Enthalpy Press Lx Ly Lz Volume Density 
 2500000    294.36562   -893.93658   -903.63927    9.7026842    -905.6873   -421.14362    35.490721    35.490721    35.490721    44703.804    1.8730295 
 2501000    307.91015   -893.93659   -904.08572     10.14913   -889.44807    160.86766    35.490721    35.490721    35.490721    44703.804    1.8730295 
 2502000    301.99658   -893.93659    -903.8908    9.9542111   -883.85965     361.1557    35.490721    35.490721    35.490721    44703.804    1.8730295 
 2503000    318.14665   -893.93659   -904.42313    10.486539    -879.4833    518.00344    35.490721    35.490721    35.490721    44703.804    1.8730295 
 2504000     321.2701   -893.93659   -904.52608    10.589492   -900.69097   -242.07578    35.490721    35.490721    35.490721    44703.804    1.8730295 
 2505000    290.45732   -893.93657   -903.51043    9.5738616    -909.5851   -560.84063    35.490721    35.490721    35.490721    44703.804    1.8730295 
 2506000     327.6046   -893.93659   -904.73487    10.798286   -904.86622   -391.71622    35.490721    35.490721    35.490721    44703.804    1.8730295 
 2507000    286.22206   -893.93657   -903.37083    9.4342618   -883.05617    389.95191    35.490721    35.490721    35.490721    44703.804    1.8730295 
 2508000    300.19701   -893.93657   -903.83147    9.8948948   -880.51182    481.14075    35.490721    35.490721    35.490721    44703.804    1.8730295 
 2509000     312.8437   -893.93658   -904.24833    10.311746   -893.52182    14.865003    35.490721    35.490721    35.490721    44703.804    1.8730295 
 2510000    316.04061   -893.93658    -904.3537    10.417121   -906.79185   -460.73046    35.490721    35.490721    35.490721    44703.804    1.8730295 
 2511000    320.32039   -893.93658   -904.49477    10.558188   -905.42514   -411.74798    35.490721    35.490721    35.490721    44703.804    1.8730295 
 2512000    314.28584   -893.93657   -904.29586    10.359281   -886.62512    262.04126    35.490721    35.490721    35.490721    44703.804    1.8730295 
 2513000    321.16512   -893.93658   -904.52261    10.586032   -881.06195    461.42471    35.490721    35.490721    35.490721    44703.804    1.8730295 
 2514000    293.26408   -893.93657   -903.60295     9.666376   -889.55894    156.89367    35.490721    35.490721    35.490721    44703.804    1.8730295 
 2515000    305.56427   -893.93658   -904.00838    10.071807   -899.16978   -187.55723    35.490721    35.490721    35.490721    44703.804    1.8730295 
 2516000    285.93804   -893.93656   -903.36146       9.4249   -912.19056   -654.22009    35.490721    35.490721    35.490721    44703.804    1.8730295 
 2517000    319.21233   -893.93658   -904.45825    10.521665   -886.91321     251.7166    35.490721    35.490721    35.490721    44703.804    1.8730295 
 2518000    311.78868   -893.93658   -904.21355    10.276972   -891.72082    79.412386    35.490721    35.490721    35.490721    44703.804    1.8730295 
 2519000    329.79859   -893.93658   -904.80718    10.870602   -896.86021   -104.78236    35.490721    35.490721    35.490721    44703.804    1.8730295 
 2520000    300.17905   -893.93657   -903.83087    9.8943028   -908.97842   -539.09724    35.490721    35.490721    35.490721    44703.804    1.8730295 
 2521000    300.45965   -893.93657   -903.84012    9.9035517   -900.48497   -234.69342    35.490721    35.490721    35.490721    44703.804    1.8730295 
 2522000    321.95858   -893.93659   -904.54877    10.612185   -895.01023   -38.479364    35.490721    35.490721    35.490721    44703.804    1.8730295 
 2523000    312.55072   -893.93658   -904.23867     10.30209   -888.19482    205.78354    35.490721    35.490721    35.490721    44703.804    1.8730295 
 2524000    309.86494   -893.93657   -904.15014    10.213563   -891.65474    81.780576    35.490721    35.490721    35.490721    44703.804    1.8730295 
 2525000     289.8023   -893.93658   -903.48885    9.5522714   -907.53532   -487.37625    35.490721    35.490721    35.490721    44703.804    1.8730295 
 2526000    302.08987   -893.93658   -903.89386     9.957286   -910.04807    -577.4331    35.490721    35.490721    35.490721    44703.804    1.8730295 
 2527000     299.8872   -893.93658   -903.82126     9.884683   -896.86195   -104.84503    35.490721    35.490721    35.490721    44703.804    1.8730295 
 2528000    307.86654   -893.93658   -904.08427    10.147693   -872.18772      779.475    35.490721    35.490721    35.490721    44703.804    1.8730295 
 2529000    321.19077   -893.93658   -904.52346    10.586877   -889.20268    169.66204    35.490721    35.490721    35.490721    44703.804    1.8730295 
 2530000    308.57487   -893.93658   -904.10762     10.17104   -895.11248   -42.144122    35.490721    35.490721    35.490721    44703.804    1.8730295 
 2531000    321.89746   -893.93659   -904.54676    10.610171   -901.18285   -259.70482    35.490721    35.490721    35.490721    44703.804    1.8730295 
 2532000     308.1618   -893.93658   -904.09401    10.157425   -900.88473   -249.02039    35.490721    35.490721    35.490721    44703.804    1.8730295 
 2533000    298.86591   -893.93658    -903.7876    9.8510199   -911.37788   -625.09321    35.490721    35.490721    35.490721    44703.804    1.8730295 
 2534000    319.18474   -893.93659   -904.45735    10.520756   -884.31696    344.76605    35.490721    35.490721    35.490721    44703.804    1.8730295 
 2535000    312.02199   -893.93658   -904.22124    10.284662   -889.41414    162.08343    35.490721    35.490721    35.490721    44703.804    1.8730295 
 2536000     305.4285   -893.93658   -904.00391    10.067332   -884.97911    321.03406    35.490721    35.490721    35.490721    44703.804    1.8730295 
 2537000    303.95223   -893.93658   -903.95525    10.018672   -914.35775   -731.89108    35.490721    35.490721    35.490721    44703.804    1.8730295 
 2538000    303.75059   -893.93658   -903.94861    10.012025   -890.57241    120.57128    35.490721    35.490721    35.490721    44703.804    1.8730295 
 2539000    309.43045   -893.93658   -904.13582    10.199241   -883.62412    369.59676    35.490721    35.490721    35.490721    44703.804    1.8730295 
 2540000    299.68783   -893.93658   -903.81469    9.8781115   -868.81993    900.17617    35.490721    35.490721    35.490721    44703.804    1.8730295 
 2541000     332.7429   -893.93659   -904.90424    10.967651   -924.65936   -1101.0986    35.490721    35.490721    35.490721    44703.804    1.8730295 
 2542000    296.75977   -893.93657   -903.71817    9.7815989   -909.36036   -552.78575    35.490721    35.490721    35.490721    44703.804    1.8730295 
 2543000    304.13277   -893.93658    -903.9612    10.024623   -887.56746    228.26799    35.490721    35.490721    35.490721    44703.804    1.8730295 
 2544000    322.72267   -893.93658   -904.57395    10.637371   -857.04266    1322.2717    35.490721    35.490721    35.490721    44703.804    1.8730295 
 2545000    322.73176   -893.93659   -904.57426     10.63767   -901.47121   -270.03965    35.490721    35.490721    35.490721    44703.804    1.8730295 
 2546000    307.55096   -893.93658   -904.07387    10.137291   -933.57112    -1420.495    35.490721    35.490721    35.490721    44703.804    1.8730295 
 2547000    303.43533   -893.93658   -903.93821    10.001634    -910.6296   -598.27507    35.490721    35.490721    35.490721    44703.804    1.8730295 
 2548000    316.61959   -893.93659   -904.37279    10.436205   -851.66444    1515.0263    35.490721    35.490721    35.490721    44703.804    1.8730295 
 2549000    328.51504   -893.93659   -904.76488    10.828295   -864.55191    1053.1417    35.490721    35.490721    35.490721    44703.804    1.8730295 
 2550000    309.77514   -893.93658   -904.14719    10.210603   -896.25427    -83.06553    35.490721    35.490721    35.490721    44703.804    1.8730295 
Loop time of 4.42825 on 8 procs for 50000 steps with 256 atoms

Performance: 487.777 ns/day, 0.049 hours/ns, 11291.142 timesteps/s
88.6% CPU use with 8 MPI tasks x 1 OpenMP threads

MPI task timing breakdown:
Section |  min time  |  avg time  |  max time  |%varavg| %total
---------------------------------------------------------------
Pair    | 2.219      | 2.6674     | 3.5463     |  26.3 | 60.24
Neigh   | 0.00029445 | 0.00056243 | 0.0010355  |   0.0 |  0.01
Comm    | 0.66391    | 1.5337     | 1.9998     |  35.0 | 34.63
Output  | 0.0066197  | 0.0066767  | 0.0069869  |   0.1 |  0.15
Modify  | 0.090504   | 0.1089     | 0.12196    |   2.8 |  2.46
Other   |            | 0.1111     |            |       |  2.51

Nlocal:    32 ave 49 max 22 min
Histogram: 2 1 1 1 1 0 1 0 0 1
Nghost:    186.5 ave 200 max 169 min
Histogram: 1 0 1 0 1 1 0 2 1 1
Neighs:    1026.12 ave 2005 max 474 min
Histogram: 3 1 0 1 0 1 1 0 0 1

Total # of neighbors = 8209
Ave neighs/atom = 32.0664
Neighbor list builds = 10
Dangerous builds = 0
System init for write_restart ...
Total wall time: 0:03:40
