LAMMPS Structure File written by MatSQ2

256 atoms

1 atom types

0 36.32 xlo xhi
0 36.32 ylo yhi
0 36.32 zlo zhi
0 0 0 xy xz yz

Masses

1 196.9665

Atoms

1 1 10 10 10
2 1 12.04 12.04 10
3 1 12.04 10 12.04
4 1 10 12.04 12.04
5 1 10 10 14.08
6 1 12.04 12.04 14.08
7 1 12.04 10 16.12
8 1 10 12.04 16.12
9 1 10 10 18.16
10 1 12.04 12.04 18.16
11 1 12.04 10 20.2
12 1 10 12.04 20.2
13 1 10 10 22.24
14 1 12.04 12.04 22.24
15 1 12.04 10 24.28
16 1 10 12.04 24.28
17 1 10 14.08 10
18 1 12.04 16.12 10
19 1 12.04 14.08 12.04
20 1 10 16.12 12.04
21 1 10 14.08 14.08
22 1 12.04 16.12 14.08
23 1 12.04 14.08 16.12
24 1 10 16.12 16.12
25 1 10 14.08 18.16
26 1 12.04 16.12 18.16
27 1 12.04 14.08 20.2
28 1 10 16.12 20.2
29 1 10 14.08 22.24
30 1 12.04 16.12 22.24
31 1 12.04 14.08 24.28
32 1 10 16.12 24.28
33 1 10 18.16 10
34 1 12.04 20.2 10
35 1 12.04 18.16 12.04
36 1 10 20.2 12.04
37 1 10 18.16 14.08
38 1 12.04 20.2 14.08
39 1 12.04 18.16 16.12
40 1 10 20.2 16.12
41 1 10 18.16 18.16
42 1 12.04 20.2 18.16
43 1 12.04 18.16 20.2
44 1 10 20.2 20.2
45 1 10 18.16 22.24
46 1 12.04 20.2 22.24
47 1 12.04 18.16 24.28
48 1 10 20.2 24.28
49 1 10 22.24 10
50 1 12.04 24.28 10
51 1 12.04 22.24 12.04
52 1 10 24.28 12.04
53 1 10 22.24 14.08
54 1 12.04 24.28 14.08
55 1 12.04 22.24 16.12
56 1 10 24.28 16.12
57 1 10 22.24 18.16
58 1 12.04 24.28 18.16
59 1 12.04 22.24 20.2
60 1 10 24.28 20.2
61 1 10 22.24 22.24
62 1 12.04 24.28 22.24
63 1 12.04 22.24 24.28
64 1 10 24.28 24.28
65 1 14.08 10 10
66 1 16.12 12.04 10
67 1 16.12 10 12.04
68 1 14.08 12.04 12.04
69 1 14.08 10 14.08
70 1 16.12 12.04 14.08
71 1 16.12 10 16.12
72 1 14.08 12.04 16.12
73 1 14.08 10 18.16
74 1 16.12 12.04 18.16
75 1 16.12 10 20.2
76 1 14.08 12.04 20.2
77 1 14.08 10 22.24
78 1 16.12 12.04 22.24
79 1 16.12 10 24.28
80 1 14.08 12.04 24.28
81 1 14.08 14.08 10
82 1 16.12 16.12 10
83 1 16.12 14.08 12.04
84 1 14.08 16.12 12.04
85 1 14.08 14.08 14.08
86 1 16.12 16.12 14.08
87 1 16.12 14.08 16.12
88 1 14.08 16.12 16.12
89 1 14.08 14.08 18.16
90 1 16.12 16.12 18.16
91 1 16.12 14.08 20.2
92 1 14.08 16.12 20.2
93 1 14.08 14.08 22.24
94 1 16.12 16.12 22.24
95 1 16.12 14.08 24.28
96 1 14.08 16.12 24.28
97 1 14.08 18.16 10
98 1 16.12 20.2 10
99 1 16.12 18.16 12.04
100 1 14.08 20.2 12.04
101 1 14.08 18.16 14.08
102 1 16.12 20.2 14.08
103 1 16.12 18.16 16.12
104 1 14.08 20.2 16.12
105 1 14.08 18.16 18.16
106 1 16.12 20.2 18.16
107 1 16.12 18.16 20.2
108 1 14.08 20.2 20.2
109 1 14.08 18.16 22.24
110 1 16.12 20.2 22.24
111 1 16.12 18.16 24.28
112 1 14.08 20.2 24.28
113 1 14.08 22.24 10
114 1 16.12 24.28 10
115 1 16.12 22.24 12.04
116 1 14.08 24.28 12.04
117 1 14.08 22.24 14.08
118 1 16.12 24.28 14.08
119 1 16.12 22.24 16.12
120 1 14.08 24.28 16.12
121 1 14.08 22.24 18.16
122 1 16.12 24.28 18.16
123 1 16.12 22.24 20.2
124 1 14.08 24.28 20.2
125 1 14.08 22.24 22.24
126 1 16.12 24.28 22.24
127 1 16.12 22.24 24.28
128 1 14.08 24.28 24.28
129 1 18.16 10 10
130 1 20.2 12.04 10
131 1 20.2 10 12.04
132 1 18.16 12.04 12.04
133 1 18.16 10 14.08
134 1 20.2 12.04 14.08
135 1 20.2 10 16.12
136 1 18.16 12.04 16.12
137 1 18.16 10 18.16
138 1 20.2 12.04 18.16
139 1 20.2 10 20.2
140 1 18.16 12.04 20.2
141 1 18.16 10 22.24
142 1 20.2 12.04 22.24
143 1 20.2 10 24.28
144 1 18.16 12.04 24.28
145 1 18.16 14.08 10
146 1 20.2 16.12 10
147 1 20.2 14.08 12.04
148 1 18.16 16.12 12.04
149 1 18.16 14.08 14.08
150 1 20.2 16.12 14.08
151 1 20.2 14.08 16.12
152 1 18.16 16.12 16.12
153 1 18.16 14.08 18.16
154 1 20.2 16.12 18.16
155 1 20.2 14.08 20.2
156 1 18.16 16.12 20.2
157 1 18.16 14.08 22.24
158 1 20.2 16.12 22.24
159 1 20.2 14.08 24.28
160 1 18.16 16.12 24.28
161 1 18.16 18.16 10
162 1 20.2 20.2 10
163 1 20.2 18.16 12.04
164 1 18.16 20.2 12.04
165 1 18.16 18.16 14.08
166 1 20.2 20.2 14.08
167 1 20.2 18.16 16.12
168 1 18.16 20.2 16.12
169 1 18.16 18.16 18.16
170 1 20.2 20.2 18.16
171 1 20.2 18.16 20.2
172 1 18.16 20.2 20.2
173 1 18.16 18.16 22.24
174 1 20.2 20.2 22.24
175 1 20.2 18.16 24.28
176 1 18.16 20.2 24.28
177 1 18.16 22.24 10
178 1 20.2 24.28 10
179 1 20.2 22.24 12.04
180 1 18.16 24.28 12.04
181 1 18.16 22.24 14.08
182 1 20.2 24.28 14.08
183 1 20.2 22.24 16.12
184 1 18.16 24.28 16.12
185 1 18.16 22.24 18.16
186 1 20.2 24.28 18.16
187 1 20.2 22.24 20.2
188 1 18.16 24.28 20.2
189 1 18.16 22.24 22.24
190 1 20.2 24.28 22.24
191 1 20.2 22.24 24.28
192 1 18.16 24.28 24.28
193 1 22.24 10 10
194 1 24.28 12.04 10
195 1 24.28 10 12.04
196 1 22.24 12.04 12.04
197 1 22.24 10 14.08
198 1 24.28 12.04 14.08
199 1 24.28 10 16.12
200 1 22.24 12.04 16.12
201 1 22.24 10 18.16
202 1 24.28 12.04 18.16
203 1 24.28 10 20.2
204 1 22.24 12.04 20.2
205 1 22.24 10 22.24
206 1 24.28 12.04 22.24
207 1 24.28 10 24.28
208 1 22.24 12.04 24.28
209 1 22.24 14.08 10
210 1 24.28 16.12 10
211 1 24.28 14.08 12.04
212 1 22.24 16.12 12.04
213 1 22.24 14.08 14.08
214 1 24.28 16.12 14.08
215 1 24.28 14.08 16.12
216 1 22.24 16.12 16.12
217 1 22.24 14.08 18.16
218 1 24.28 16.12 18.16
219 1 24.28 14.08 20.2
220 1 22.24 16.12 20.2
221 1 22.24 14.08 22.24
222 1 24.28 16.12 22.24
223 1 24.28 14.08 24.28
224 1 22.24 16.12 24.28
225 1 22.24 18.16 10
226 1 24.28 20.2 10
227 1 24.28 18.16 12.04
228 1 22.24 20.2 12.04
229 1 22.24 18.16 14.08
230 1 24.28 20.2 14.08
231 1 24.28 18.16 16.12
232 1 22.24 20.2 16.12
233 1 22.24 18.16 18.16
234 1 24.28 20.2 18.16
235 1 24.28 18.16 20.2
236 1 22.24 20.2 20.2
237 1 22.24 18.16 22.24
238 1 24.28 20.2 22.24
239 1 24.28 18.16 24.28
240 1 22.24 20.2 24.28
241 1 22.24 22.24 10
242 1 24.28 24.28 10
243 1 24.28 22.24 12.04
244 1 22.24 24.28 12.04
245 1 22.24 22.24 14.08
246 1 24.28 24.28 14.08
247 1 24.28 22.24 16.12
248 1 22.24 24.28 16.12
249 1 22.24 22.24 18.16
250 1 24.28 24.28 18.16
251 1 24.28 22.24 20.2
252 1 22.24 24.28 20.2
253 1 22.24 22.24 22.24
254 1 24.28 24.28 22.24
255 1 24.28 22.24 24.28
256 1 22.24 24.28 24.28
